<?xml version="1.0" encoding="UTF-8"?>

<!-- generated on 2024-03-26 17:23:21 by Eclipse SUMO GUI Version 1.19.0
<configuration xmlns:xsi="http://www.w3.org/2001/XMLSchema-instance" xsi:noNamespaceSchemaLocation="http://sumo.dlr.de/xsd/sumoConfiguration.xsd">

    <input>
        <net-file value="tjunction.net.xml"/>
        <route-files value="tjunction.rou.xml"/>
    </input>

    <output>
        <tripinfo-output value="tripinfo.xml"/>
    </output>

    <time>
        <begin value="0"/>
        <end value="3600"/>
    </time>

    <traci_server>
        <remote-port value="60425"/>
    </traci_server>

</configuration>
-->

<tripinfos xmlns:xsi="http://www.w3.org/2001/XMLSchema-instance" xsi:noNamespaceSchemaLocation="http://sumo.dlr.de/xsd/tripinfo_file.xsd">
    <tripinfo id="veh_7" depart="10.00" departLane="L10_0" departPos="5.10" departSpeed="0.00" departDelay="0.00" arrival="30.00" arrivalLane="L9_0" arrivalPos="89.60" arrivalSpeed="11.06" duration="20.00" routeLength="194.90" waitingTime="0.00" waitingCount="0" stopTime="0.00" timeLoss="3.41" rerouteNo="0" devices="tripinfo_veh_7" vType="normal" speedFactor="0.89" vaporized=""/>
    <tripinfo id="veh_0" depart="0.00" departLane="L10_0" departPos="5.10" departSpeed="0.00" departDelay="0.00" arrival="41.00" arrivalLane="L7_0" arrivalPos="89.60" arrivalSpeed="13.89" duration="41.00" routeLength="393.40" waitingTime="1.00" waitingCount="1" stopTime="0.00" timeLoss="12.15" rerouteNo="0" devices="tripinfo_veh_0" vType="normal" speedFactor="1.06" vaporized=""/>
    <tripinfo id="veh_1" depart="1.00" departLane="A7_0" departPos="5.10" departSpeed="0.00" departDelay="0.00" arrival="42.00" arrivalLane="L11_0" arrivalPos="89.60" arrivalSpeed="12.47" duration="41.00" routeLength="294.15" waitingTime="9.00" waitingCount="1" stopTime="0.00" timeLoss="17.19" rerouteNo="0" devices="tripinfo_veh_1" vType="normal" speedFactor="0.94" vaporized=""/>
    <tripinfo id="veh_17" depart="26.00" departLane="L2_0" departPos="5.10" departSpeed="0.00" departDelay="0.00" arrival="45.00" arrivalLane="L1_0" arrivalPos="89.60" arrivalSpeed="12.22" duration="19.00" routeLength="194.90" waitingTime="0.00" waitingCount="0" stopTime="0.00" timeLoss="3.26" rerouteNo="0" devices="tripinfo_veh_17" vType="normal" speedFactor="0.94" vaporized=""/>
    <tripinfo id="veh_5" depart="7.00" departLane="L8_0" departPos="5.10" departSpeed="0.00" departDelay="0.00" arrival="50.00" arrivalLane="L5_0" arrivalPos="89.60" arrivalSpeed="10.47" duration="43.00" routeLength="377.76" waitingTime="0.00" waitingCount="0" stopTime="0.00" timeLoss="8.10" rerouteNo="0" devices="tripinfo_veh_5" vType="normal" speedFactor="0.83" vaporized=""/>
    <tripinfo id="veh_6" depart="9.00" departLane="A0_0" departPos="5.10" departSpeed="0.00" departDelay="0.00" arrival="52.00" arrivalLane="L5_0" arrivalPos="89.60" arrivalSpeed="14.08" duration="43.00" routeLength="494.15" waitingTime="0.00" waitingCount="0" stopTime="0.00" timeLoss="7.58" rerouteNo="0" devices="tripinfo_veh_6" vType="normal" speedFactor="1.05" vaporized=""/>
    <tripinfo id="veh_4" depart="5.00" departLane="L2_0" departPos="5.10" departSpeed="0.00" departDelay="0.00" arrival="57.00" arrivalLane="L7_0" arrivalPos="89.60" arrivalSpeed="13.32" duration="52.00" routeLength="377.76" waitingTime="13.00" waitingCount="1" stopTime="0.00" timeLoss="23.95" rerouteNo="0" devices="tripinfo_veh_4" vType="normal" speedFactor="1.03" vaporized=""/>
    <tripinfo id="veh_30" depart="47.00" departLane="L0_0" departPos="5.10" departSpeed="0.00" departDelay="0.00" arrival="70.00" arrivalLane="A1_0" arrivalPos="192.80" arrivalSpeed="16.37" duration="23.00" routeLength="286.33" waitingTime="0.00" waitingCount="0" stopTime="0.00" timeLoss="4.24" rerouteNo="0" devices="tripinfo_veh_30" vType="autonomous" speedFactor="1.18" vaporized=""/>
    <tripinfo id="veh_34" depart="55.00" departLane="L2_0" departPos="5.10" departSpeed="0.00" departDelay="0.00" arrival="74.00" arrivalLane="L1_0" arrivalPos="89.60" arrivalSpeed="12.69" duration="19.00" routeLength="194.90" waitingTime="0.00" waitingCount="0" stopTime="0.00" timeLoss="4.34" rerouteNo="0" devices="tripinfo_veh_34" vType="normal" speedFactor="0.99" vaporized=""/>
    <tripinfo id="veh_9" depart="14.00" departLane="L0_0" departPos="5.10" departSpeed="0.00" departDelay="0.00" arrival="79.00" arrivalLane="L11_0" arrivalPos="89.60" arrivalSpeed="11.89" duration="65.00" routeLength="585.58" waitingTime="3.00" waitingCount="1" stopTime="0.00" timeLoss="14.19" rerouteNo="0" devices="tripinfo_veh_9" vType="normal" speedFactor="0.86" vaporized=""/>
    <tripinfo id="veh_2" depart="3.00" departLane="L6_0" departPos="5.10" departSpeed="0.00" departDelay="0.00" arrival="82.00" arrivalLane="L9_0" arrivalPos="89.60" arrivalSpeed="14.00" duration="79.00" routeLength="385.58" waitingTime="39.00" waitingCount="1" stopTime="0.00" timeLoss="50.09" rerouteNo="0" devices="tripinfo_veh_2" vType="normal" speedFactor="1.01" vaporized=""/>
    <tripinfo id="veh_3" depart="4.00" departLane="A7_0" departPos="5.10" departSpeed="0.00" departDelay="0.00" arrival="90.00" arrivalLane="L1_0" arrivalPos="89.60" arrivalSpeed="14.11" duration="86.00" routeLength="686.33" waitingTime="22.00" waitingCount="2" stopTime="0.00" timeLoss="39.53" rerouteNo="0" devices="tripinfo_veh_3" vType="normal" speedFactor="1.08" vaporized=""/>
    <tripinfo id="veh_18" depart="27.00" departLane="A0_0" departPos="5.10" departSpeed="0.00" departDelay="0.00" arrival="90.00" arrivalLane="L3_0" arrivalPos="89.60" arrivalSpeed="12.23" duration="63.00" routeLength="286.33" waitingTime="32.00" waitingCount="1" stopTime="0.00" timeLoss="40.32" rerouteNo="0" devices="tripinfo_veh_18" vType="normal" speedFactor="0.94" vaporized=""/>
    <tripinfo id="veh_15" depart="24.00" departLane="L4_0" departPos="5.10" departSpeed="0.00" departDelay="0.00" arrival="92.00" arrivalLane="A6_0" arrivalPos="192.80" arrivalSpeed="11.61" duration="68.00" routeLength="494.15" waitingTime="19.00" waitingCount="1" stopTime="0.00" timeLoss="28.65" rerouteNo="0" devices="tripinfo_veh_15" vType="normal" speedFactor="0.93" vaporized=""/>
    <tripinfo id="veh_11" depart="17.00" departLane="L6_0" departPos="5.10" departSpeed="0.00" departDelay="0.00" arrival="93.00" arrivalLane="L1_0" arrivalPos="89.60" arrivalSpeed="13.58" duration="76.00" routeLength="385.58" waitingTime="29.00" waitingCount="2" stopTime="0.00" timeLoss="46.50" rerouteNo="0" devices="tripinfo_veh_11" vType="normal" speedFactor="1.03" vaporized=""/>
    <tripinfo id="veh_22" depart="35.00" departLane="L10_0" departPos="5.10" departSpeed="0.00" departDelay="0.00" arrival="93.00" arrivalLane="L9_0" arrivalPos="89.60" arrivalSpeed="13.16" duration="58.00" routeLength="194.90" waitingTime="34.00" waitingCount="1" stopTime="0.00" timeLoss="42.97" rerouteNo="0" devices="tripinfo_veh_22" vType="normal" speedFactor="0.97" vaporized=""/>
    <tripinfo id="veh_32" depart="51.00" departLane="L6_0" departPos="5.10" departSpeed="0.00" departDelay="0.00" arrival="94.00" arrivalLane="L1_0" arrivalPos="89.60" arrivalSpeed="13.96" duration="43.00" routeLength="385.58" waitingTime="3.00" waitingCount="1" stopTime="0.00" timeLoss="14.01" rerouteNo="0" devices="tripinfo_veh_32" vType="autonomous" speedFactor="1.01" vaporized=""/>
    <tripinfo id="veh_8" depart="12.00" departLane="L8_0" departPos="5.10" departSpeed="0.00" departDelay="0.00" arrival="97.00" arrivalLane="L3_0" arrivalPos="89.60" arrivalSpeed="13.03" duration="85.00" routeLength="585.58" waitingTime="31.00" waitingCount="2" stopTime="0.00" timeLoss="38.33" rerouteNo="0" devices="tripinfo_veh_8" vType="autonomous" speedFactor="0.94" vaporized=""/>
    <tripinfo id="veh_36" depart="59.00" departLane="L6_0" departPos="5.10" departSpeed="0.00" departDelay="0.00" arrival="98.00" arrivalLane="L1_0" arrivalPos="89.60" arrivalSpeed="12.29" duration="39.00" routeLength="385.58" waitingTime="0.00" waitingCount="0" stopTime="0.00" timeLoss="8.57" rerouteNo="0" devices="tripinfo_veh_36" vType="normal" speedFactor="0.97" vaporized=""/>
    <tripinfo id="veh_26" depart="41.00" departLane="A0_0" departPos="5.10" departSpeed="0.00" departDelay="0.00" arrival="100.00" arrivalLane="L1_0" arrivalPos="89.60" arrivalSpeed="11.74" duration="59.00" routeLength="294.15" waitingTime="25.00" waitingCount="2" stopTime="0.00" timeLoss="35.23" rerouteNo="0" devices="tripinfo_veh_26" vType="normal" speedFactor="0.92" vaporized=""/>
    <tripinfo id="veh_16" depart="25.00" departLane="L8_0" departPos="5.10" departSpeed="0.00" departDelay="0.00" arrival="105.00" arrivalLane="A6_1" arrivalPos="192.80" arrivalSpeed="12.20" duration="80.00" routeLength="294.15" waitingTime="47.00" waitingCount="2" stopTime="0.00" timeLoss="54.84" rerouteNo="0" devices="tripinfo_veh_16" vType="autonomous" speedFactor="0.88" vaporized=""/>
    <tripinfo id="veh_51" depart="82.00" departLane="L10_0" departPos="5.10" departSpeed="0.00" departDelay="0.00" arrival="107.00" arrivalLane="L9_0" arrivalPos="89.60" arrivalSpeed="16.23" duration="25.00" routeLength="194.90" waitingTime="0.00" waitingCount="0" stopTime="0.00" timeLoss="12.52" rerouteNo="0" devices="tripinfo_veh_51" vType="normal" speedFactor="1.17" vaporized=""/>
    <tripinfo id="veh_10" depart="17.00" departLane="L0_0" departPos="5.10" departSpeed="0.00" departDelay="1.00" arrival="115.00" arrivalLane="L7_0" arrivalPos="89.60" arrivalSpeed="13.95" duration="98.00" routeLength="385.58" waitingTime="52.00" waitingCount="3" stopTime="0.00" timeLoss="71.21" rerouteNo="0" devices="tripinfo_veh_10" vType="normal" speedFactor="1.09" vaporized=""/>
    <tripinfo id="veh_13" depart="21.00" departLane="L0_0" departPos="5.10" departSpeed="0.00" departDelay="0.00" arrival="116.00" arrivalLane="L7_0" arrivalPos="89.60" arrivalSpeed="15.60" duration="95.00" routeLength="385.58" waitingTime="51.00" waitingCount="3" stopTime="0.00" timeLoss="68.81" rerouteNo="0" devices="tripinfo_veh_13" vType="autonomous" speedFactor="1.12" vaporized=""/>
    <tripinfo id="veh_48" depart="76.00" departLane="L6_0" departPos="5.10" departSpeed="0.00" departDelay="0.00" arrival="117.00" arrivalLane="L3_0" arrivalPos="89.60" arrivalSpeed="12.18" duration="41.00" routeLength="393.40" waitingTime="0.00" waitingCount="0" stopTime="0.00" timeLoss="6.80" rerouteNo="0" devices="tripinfo_veh_48" vType="autonomous" speedFactor="0.88" vaporized=""/>
    <tripinfo id="veh_33" depart="53.00" departLane="L2_0" departPos="5.10" departSpeed="0.00" departDelay="0.00" arrival="118.00" arrivalLane="L7_0" arrivalPos="89.60" arrivalSpeed="16.28" duration="65.00" routeLength="377.76" waitingTime="30.00" waitingCount="1" stopTime="0.00" timeLoss="39.96" rerouteNo="0" devices="tripinfo_veh_33" vType="autonomous" speedFactor="1.17" vaporized=""/>
    <tripinfo id="veh_64" depart="100.00" departLane="L10_0" departPos="5.10" departSpeed="0.00" departDelay="0.00" arrival="119.00" arrivalLane="L9_0" arrivalPos="89.60" arrivalSpeed="12.89" duration="19.00" routeLength="194.90" waitingTime="0.00" waitingCount="0" stopTime="0.00" timeLoss="3.23" rerouteNo="0" devices="tripinfo_veh_64" vType="normal" speedFactor="0.94" vaporized=""/>
    <tripinfo id="veh_54" depart="85.00" departLane="L8_0" departPos="5.10" departSpeed="0.00" departDelay="0.00" arrival="122.00" arrivalLane="L5_0" arrivalPos="89.60" arrivalSpeed="13.69" duration="37.00" routeLength="377.76" waitingTime="0.00" waitingCount="0" stopTime="0.00" timeLoss="7.85" rerouteNo="0" devices="tripinfo_veh_54" vType="normal" speedFactor="1.00" vaporized=""/>
    <tripinfo id="veh_52" depart="85.00" departLane="L10_0" departPos="5.10" departSpeed="0.00" departDelay="2.00" arrival="123.00" arrivalLane="A6_0" arrivalPos="192.80" arrivalSpeed="14.05" duration="38.00" routeLength="286.33" waitingTime="2.00" waitingCount="1" stopTime="0.00" timeLoss="16.58" rerouteNo="0" devices="tripinfo_veh_52" vType="normal" speedFactor="1.02" vaporized=""/>
    <tripinfo id="veh_59" depart="92.00" departLane="L8_0" departPos="5.10" departSpeed="0.00" departDelay="0.00" arrival="124.00" arrivalLane="A6_1" arrivalPos="192.80" arrivalSpeed="12.27" duration="32.00" routeLength="294.15" waitingTime="0.00" waitingCount="0" stopTime="0.00" timeLoss="8.79" rerouteNo="0" devices="tripinfo_veh_59" vType="normal" speedFactor="0.97" vaporized=""/>
    <tripinfo id="veh_65" depart="103.00" departLane="L10_0" departPos="5.10" departSpeed="0.00" departDelay="1.00" arrival="124.00" arrivalLane="L9_0" arrivalPos="89.60" arrivalSpeed="11.97" duration="21.00" routeLength="194.90" waitingTime="0.00" waitingCount="0" stopTime="0.00" timeLoss="4.13" rerouteNo="0" devices="tripinfo_veh_65" vType="normal" speedFactor="0.88" vaporized=""/>
    <tripinfo id="veh_39" depart="63.00" departLane="A0_0" departPos="5.10" departSpeed="0.00" departDelay="0.00" arrival="125.00" arrivalLane="L7_0" arrivalPos="89.60" arrivalSpeed="12.03" duration="62.00" routeLength="486.33" waitingTime="5.00" waitingCount="1" stopTime="0.00" timeLoss="21.78" rerouteNo="0" devices="tripinfo_veh_39" vType="normal" speedFactor="0.90" vaporized=""/>
    <tripinfo id="veh_49" depart="78.00" departLane="L4_0" departPos="5.10" departSpeed="0.00" departDelay="0.00" arrival="126.00" arrivalLane="A1_0" arrivalPos="192.80" arrivalSpeed="10.81" duration="48.00" routeLength="486.33" waitingTime="0.00" waitingCount="0" stopTime="0.00" timeLoss="6.14" rerouteNo="0" devices="tripinfo_veh_49" vType="normal" speedFactor="0.85" vaporized=""/>
    <tripinfo id="veh_12" depart="19.00" departLane="L8_0" departPos="5.10" departSpeed="0.00" departDelay="0.00" arrival="132.00" arrivalLane="L7_0" arrivalPos="89.60" arrivalSpeed="13.82" duration="113.00" routeLength="385.58" waitingTime="67.00" waitingCount="3" stopTime="0.00" timeLoss="85.45" rerouteNo="0" devices="tripinfo_veh_12" vType="normal" speedFactor="1.05" vaporized=""/>
    <tripinfo id="veh_43" depart="69.00" departLane="A0_0" departPos="5.10" departSpeed="0.00" departDelay="0.00" arrival="132.00" arrivalLane="L5_0" arrivalPos="89.60" arrivalSpeed="14.26" duration="63.00" routeLength="494.15" waitingTime="12.00" waitingCount="2" stopTime="0.00" timeLoss="28.02" rerouteNo="0" devices="tripinfo_veh_43" vType="normal" speedFactor="1.04" vaporized=""/>
    <tripinfo id="veh_20" depart="31.00" departLane="L10_0" departPos="5.10" departSpeed="0.00" departDelay="0.00" arrival="134.00" arrivalLane="L1_0" arrivalPos="89.60" arrivalSpeed="13.12" duration="103.00" routeLength="585.58" waitingTime="41.00" waitingCount="2" stopTime="0.00" timeLoss="59.66" rerouteNo="0" devices="tripinfo_veh_20" vType="normal" speedFactor="1.02" vaporized=""/>
    <tripinfo id="veh_23" depart="38.00" departLane="L10_0" departPos="5.10" departSpeed="0.00" departDelay="2.00" arrival="135.00" arrivalLane="L7_0" arrivalPos="89.60" arrivalSpeed="12.36" duration="97.00" routeLength="393.40" waitingTime="48.00" waitingCount="3" stopTime="0.00" timeLoss="63.04" rerouteNo="0" devices="tripinfo_veh_23" vType="autonomous" speedFactor="0.89" vaporized=""/>
    <tripinfo id="veh_14" depart="23.00" departLane="A7_0" departPos="5.10" departSpeed="0.00" departDelay="0.00" arrival="136.00" arrivalLane="A1_0" arrivalPos="192.80" arrivalSpeed="13.77" duration="113.00" routeLength="794.90" waitingTime="49.00" waitingCount="1" stopTime="0.00" timeLoss="55.08" rerouteNo="0" devices="tripinfo_veh_14" vType="autonomous" speedFactor="0.99" vaporized=""/>
    <tripinfo id="veh_29" depart="46.00" departLane="A7_0" departPos="5.10" departSpeed="0.00" departDelay="0.00" arrival="138.00" arrivalLane="A1_1" arrivalPos="192.80" arrivalSpeed="12.94" duration="92.00" routeLength="794.90" waitingTime="25.00" waitingCount="1" stopTime="0.00" timeLoss="30.10" rerouteNo="0" devices="tripinfo_veh_29" vType="autonomous" speedFactor="0.93" vaporized=""/>
    <tripinfo id="veh_19" depart="29.00" departLane="L8_0" departPos="5.10" departSpeed="0.00" departDelay="0.00" arrival="140.00" arrivalLane="L7_0" arrivalPos="89.60" arrivalSpeed="15.64" duration="111.00" routeLength="385.58" waitingTime="52.00" waitingCount="3" stopTime="0.00" timeLoss="85.22" rerouteNo="0" devices="tripinfo_veh_19" vType="normal" speedFactor="1.16" vaporized=""/>
    <tripinfo id="veh_44" depart="71.00" departLane="L2_0" departPos="5.10" departSpeed="0.00" departDelay="0.00" arrival="140.00" arrivalLane="L1_0" arrivalPos="89.60" arrivalSpeed="13.46" duration="69.00" routeLength="194.90" waitingTime="46.00" waitingCount="1" stopTime="0.00" timeLoss="55.36" rerouteNo="0" devices="tripinfo_veh_44" vType="normal" speedFactor="1.04" vaporized=""/>
    <tripinfo id="veh_31" depart="49.00" departLane="L4_0" departPos="5.10" departSpeed="0.00" departDelay="0.00" arrival="142.00" arrivalLane="L9_0" arrivalPos="89.60" arrivalSpeed="15.37" duration="93.00" routeLength="393.40" waitingTime="49.00" waitingCount="1" stopTime="0.00" timeLoss="67.33" rerouteNo="0" devices="tripinfo_veh_31" vType="normal" speedFactor="1.15" vaporized=""/>
    <tripinfo id="veh_53" depart="84.00" departLane="L4_0" departPos="5.10" departSpeed="0.00" departDelay="0.00" arrival="143.00" arrivalLane="L11_0" arrivalPos="89.60" arrivalSpeed="14.71" duration="59.00" routeLength="385.58" waitingTime="17.00" waitingCount="1" stopTime="0.00" timeLoss="31.77" rerouteNo="0" devices="tripinfo_veh_53" vType="normal" speedFactor="1.10" vaporized=""/>
    <tripinfo id="veh_21" depart="33.00" departLane="L0_0" departPos="5.10" departSpeed="0.00" departDelay="0.00" arrival="146.00" arrivalLane="L11_0" arrivalPos="89.60" arrivalSpeed="13.50" duration="113.00" routeLength="585.58" waitingTime="48.00" waitingCount="2" stopTime="0.00" timeLoss="68.73" rerouteNo="0" devices="tripinfo_veh_21" vType="normal" speedFactor="1.01" vaporized=""/>
    <tripinfo id="veh_37" depart="60.00" departLane="A0_0" departPos="5.10" departSpeed="0.00" departDelay="0.00" arrival="147.00" arrivalLane="L11_0" arrivalPos="89.60" arrivalSpeed="15.99" duration="87.00" routeLength="686.33" waitingTime="15.00" waitingCount="3" stopTime="0.00" timeLoss="44.55" rerouteNo="0" devices="tripinfo_veh_37" vType="normal" speedFactor="1.18" vaporized=""/>
    <tripinfo id="veh_41" depart="66.00" departLane="L4_0" departPos="5.10" departSpeed="0.00" departDelay="0.00" arrival="149.00" arrivalLane="L9_0" arrivalPos="89.60" arrivalSpeed="13.26" duration="83.00" routeLength="393.40" waitingTime="36.00" waitingCount="3" stopTime="0.00" timeLoss="51.84" rerouteNo="0" devices="tripinfo_veh_41" vType="normal" speedFactor="0.96" vaporized=""/>
    <tripinfo id="veh_25" depart="40.00" departLane="L4_0" departPos="5.10" departSpeed="0.00" departDelay="0.00" arrival="150.00" arrivalLane="A6_0" arrivalPos="192.80" arrivalSpeed="11.96" duration="110.00" routeLength="494.15" waitingTime="55.00" waitingCount="2" stopTime="0.00" timeLoss="68.37" rerouteNo="0" devices="tripinfo_veh_25" vType="normal" speedFactor="0.87" vaporized=""/>
    <tripinfo id="veh_50" depart="80.00" departLane="L0_0" departPos="5.10" departSpeed="0.00" departDelay="0.00" arrival="150.00" arrivalLane="A1_0" arrivalPos="192.80" arrivalSpeed="11.81" duration="70.00" routeLength="286.33" waitingTime="38.00" waitingCount="1" stopTime="0.00" timeLoss="44.97" rerouteNo="0" devices="tripinfo_veh_50" vType="normal" speedFactor="0.85" vaporized=""/>
    <tripinfo id="veh_57" depart="90.00" departLane="L0_0" departPos="5.10" departSpeed="0.00" departDelay="0.00" arrival="152.00" arrivalLane="A1_0" arrivalPos="192.80" arrivalSpeed="15.38" duration="62.00" routeLength="286.33" waitingTime="28.00" waitingCount="1" stopTime="0.00" timeLoss="42.84" rerouteNo="0" devices="tripinfo_veh_57" vType="normal" speedFactor="1.14" vaporized=""/>
    <tripinfo id="veh_42" depart="67.00" departLane="A7_0" departPos="5.10" departSpeed="0.00" departDelay="0.00" arrival="153.00" arrivalLane="L11_0" arrivalPos="89.60" arrivalSpeed="14.27" duration="86.00" routeLength="294.15" waitingTime="54.00" waitingCount="2" stopTime="0.00" timeLoss="65.67" rerouteNo="0" devices="tripinfo_veh_42" vType="normal" speedFactor="1.09" vaporized=""/>
    <tripinfo id="veh_60" depart="93.00" departLane="A7_0" departPos="5.10" departSpeed="0.00" departDelay="0.00" arrival="155.00" arrivalLane="L11_0" arrivalPos="89.60" arrivalSpeed="15.04" duration="62.00" routeLength="294.15" waitingTime="25.00" waitingCount="3" stopTime="0.00" timeLoss="41.25" rerouteNo="0" devices="tripinfo_veh_60" vType="normal" speedFactor="1.08" vaporized=""/>
    <tripinfo id="veh_55" depart="86.00" departLane="A0_0" departPos="5.10" departSpeed="0.00" departDelay="0.00" arrival="156.00" arrivalLane="A6_0" arrivalPos="192.80" arrivalSpeed="13.83" duration="70.00" routeLength="794.90" waitingTime="1.00" waitingCount="1" stopTime="0.00" timeLoss="12.40" rerouteNo="0" devices="tripinfo_veh_55" vType="autonomous" speedFactor="1.00" vaporized=""/>
    <tripinfo id="veh_68" depart="106.00" departLane="L0_0" departPos="5.10" departSpeed="0.00" departDelay="1.00" arrival="156.00" arrivalLane="A1_0" arrivalPos="192.80" arrivalSpeed="14.45" duration="50.00" routeLength="286.33" waitingTime="18.00" waitingCount="1" stopTime="0.00" timeLoss="29.41" rerouteNo="0" devices="tripinfo_veh_68" vType="autonomous" speedFactor="1.04" vaporized=""/>
    <tripinfo id="veh_38" depart="61.00" departLane="L0_0" departPos="5.10" departSpeed="0.00" departDelay="0.00" arrival="157.00" arrivalLane="A6_1" arrivalPos="192.80" arrivalSpeed="14.21" duration="96.00" routeLength="694.15" waitingTime="23.00" waitingCount="2" stopTime="0.00" timeLoss="49.66" rerouteNo="0" devices="tripinfo_veh_38" vType="normal" speedFactor="1.10" vaporized=""/>
    <tripinfo id="veh_77" depart="120.00" departLane="L0_0" departPos="5.10" departSpeed="0.00" departDelay="0.00" arrival="162.00" arrivalLane="A1_0" arrivalPos="192.80" arrivalSpeed="13.64" duration="42.00" routeLength="286.33" waitingTime="9.00" waitingCount="1" stopTime="0.00" timeLoss="19.96" rerouteNo="0" devices="tripinfo_veh_77" vType="autonomous" speedFactor="0.98" vaporized=""/>
    <tripinfo id="veh_87" depart="134.00" departLane="L2_0" departPos="5.10" departSpeed="0.00" departDelay="0.00" arrival="162.00" arrivalLane="A1_1" arrivalPos="192.80" arrivalSpeed="14.15" duration="28.00" routeLength="294.15" waitingTime="0.00" waitingCount="0" stopTime="0.00" timeLoss="6.10" rerouteNo="0" devices="tripinfo_veh_87" vType="normal" speedFactor="1.04" vaporized=""/>
    <tripinfo id="veh_75" depart="117.00" departLane="L6_0" departPos="5.10" departSpeed="0.00" departDelay="0.00" arrival="166.00" arrivalLane="L5_0" arrivalPos="89.60" arrivalSpeed="13.68" duration="49.00" routeLength="194.90" waitingTime="29.00" waitingCount="1" stopTime="0.00" timeLoss="34.59" rerouteNo="0" devices="tripinfo_veh_75" vType="autonomous" speedFactor="0.98" vaporized=""/>
    <tripinfo id="veh_93" depart="144.00" departLane="A7_0" departPos="5.10" departSpeed="0.00" departDelay="1.00" arrival="171.00" arrivalLane="L11_0" arrivalPos="89.60" arrivalSpeed="12.80" duration="27.00" routeLength="294.15" waitingTime="0.00" waitingCount="0" stopTime="0.00" timeLoss="3.09" rerouteNo="0" devices="tripinfo_veh_93" vType="autonomous" speedFactor="0.92" vaporized=""/>
    <tripinfo id="veh_96" depart="147.00" departLane="L6_0" departPos="5.10" departSpeed="0.00" departDelay="0.00" arrival="171.00" arrivalLane="L5_0" arrivalPos="89.60" arrivalSpeed="13.22" duration="24.00" routeLength="194.90" waitingTime="0.00" waitingCount="0" stopTime="0.00" timeLoss="9.83" rerouteNo="0" devices="tripinfo_veh_96" vType="normal" speedFactor="1.01" vaporized=""/>
    <tripinfo id="veh_45" depart="74.00" departLane="L2_0" departPos="5.10" departSpeed="0.00" departDelay="2.00" arrival="172.00" arrivalLane="L9_0" arrivalPos="89.60" arrivalSpeed="14.50" duration="98.00" routeLength="585.58" waitingTime="44.00" waitingCount="1" stopTime="0.00" timeLoss="57.44" rerouteNo="0" devices="tripinfo_veh_45" vType="normal" speedFactor="1.09" vaporized=""/>
    <tripinfo id="veh_99" depart="151.00" departLane="L2_0" departPos="5.10" departSpeed="0.00" departDelay="0.00" arrival="177.00" arrivalLane="A1_1" arrivalPos="192.80" arrivalSpeed="14.33" duration="26.00" routeLength="294.15" waitingTime="0.00" waitingCount="0" stopTime="0.00" timeLoss="5.93" rerouteNo="0" devices="tripinfo_veh_99" vType="normal" speedFactor="1.10" vaporized=""/>
    <tripinfo id="veh_103" depart="155.00" departLane="L0_0" departPos="5.10" departSpeed="0.00" departDelay="0.00" arrival="183.00" arrivalLane="A1_0" arrivalPos="192.80" arrivalSpeed="12.03" duration="28.00" routeLength="286.33" waitingTime="0.00" waitingCount="0" stopTime="0.00" timeLoss="5.81" rerouteNo="0" devices="tripinfo_veh_103" vType="normal" speedFactor="0.95" vaporized=""/>
    <tripinfo id="veh_84" depart="130.00" departLane="L6_0" departPos="5.10" departSpeed="0.00" departDelay="0.00" arrival="184.00" arrivalLane="L11_0" arrivalPos="89.60" arrivalSpeed="15.64" duration="54.00" routeLength="377.76" waitingTime="17.00" waitingCount="1" stopTime="0.00" timeLoss="28.07" rerouteNo="0" devices="tripinfo_veh_84" vType="normal" speedFactor="1.15" vaporized=""/>
    <tripinfo id="veh_106" depart="159.00" departLane="L0_0" departPos="5.10" departSpeed="0.00" departDelay="0.00" arrival="187.00" arrivalLane="A1_0" arrivalPos="192.80" arrivalSpeed="12.91" duration="28.00" routeLength="286.33" waitingTime="0.00" waitingCount="0" stopTime="0.00" timeLoss="6.03" rerouteNo="0" devices="tripinfo_veh_106" vType="normal" speedFactor="1.01" vaporized=""/>
    <tripinfo id="veh_27" depart="43.00" departLane="L10_0" departPos="5.10" departSpeed="0.00" departDelay="1.00" arrival="190.00" arrivalLane="L1_0" arrivalPos="89.60" arrivalSpeed="12.68" duration="147.00" routeLength="585.58" waitingTime="81.00" waitingCount="2" stopTime="0.00" timeLoss="101.35" rerouteNo="0" devices="tripinfo_veh_27" vType="normal" speedFactor="0.95" vaporized=""/>
    <tripinfo id="veh_28" depart="44.00" departLane="L8_0" departPos="5.10" departSpeed="0.00" departDelay="0.00" arrival="191.00" arrivalLane="L3_0" arrivalPos="89.60" arrivalSpeed="15.72" duration="147.00" routeLength="585.58" waitingTime="74.00" waitingCount="4" stopTime="0.00" timeLoss="108.17" rerouteNo="0" devices="tripinfo_veh_28" vType="autonomous" speedFactor="1.13" vaporized=""/>
    <tripinfo id="veh_40" depart="65.00" departLane="L10_0" departPos="5.10" departSpeed="0.00" departDelay="0.00" arrival="194.00" arrivalLane="L3_0" arrivalPos="89.60" arrivalSpeed="14.31" duration="129.00" routeLength="593.40" waitingTime="53.00" waitingCount="4" stopTime="0.00" timeLoss="86.09" rerouteNo="0" devices="tripinfo_veh_40" vType="autonomous" speedFactor="1.03" vaporized=""/>
    <tripinfo id="veh_24" depart="40.00" departLane="L10_0" departPos="5.10" departSpeed="0.00" departDelay="2.00" arrival="195.00" arrivalLane="L1_0" arrivalPos="89.60" arrivalSpeed="11.43" duration="155.00" routeLength="585.58" waitingTime="75.00" waitingCount="2" stopTime="0.00" timeLoss="101.69" rerouteNo="0" devices="tripinfo_veh_24" vType="normal" speedFactor="0.83" vaporized=""/>
    <tripinfo id="veh_86" depart="133.00" departLane="L10_0" departPos="5.10" departSpeed="0.00" departDelay="0.00" arrival="196.00" arrivalLane="L9_0" arrivalPos="89.60" arrivalSpeed="13.00" duration="63.00" routeLength="194.90" waitingTime="36.00" waitingCount="1" stopTime="0.00" timeLoss="48.19" rerouteNo="0" devices="tripinfo_veh_86" vType="normal" speedFactor="1.00" vaporized=""/>
    <tripinfo id="veh_46" depart="74.00" departLane="L10_0" departPos="5.10" departSpeed="0.00" departDelay="0.00" arrival="197.00" arrivalLane="L3_0" arrivalPos="89.60" arrivalSpeed="13.85" duration="123.00" routeLength="593.40" waitingTime="44.00" waitingCount="4" stopTime="0.00" timeLoss="77.82" rerouteNo="0" devices="tripinfo_veh_46" vType="autonomous" speedFactor="1.00" vaporized=""/>
    <tripinfo id="veh_56" depart="88.00" departLane="L8_0" departPos="5.10" departSpeed="0.00" departDelay="0.00" arrival="197.00" arrivalLane="L1_0" arrivalPos="89.60" arrivalSpeed="12.30" duration="109.00" routeLength="577.76" waitingTime="43.00" waitingCount="1" stopTime="0.00" timeLoss="61.19" rerouteNo="0" devices="tripinfo_veh_56" vType="normal" speedFactor="0.90" vaporized=""/>
    <tripinfo id="veh_82" depart="126.00" departLane="L10_0" departPos="5.10" departSpeed="0.00" departDelay="0.00" arrival="197.00" arrivalLane="A6_0" arrivalPos="192.80" arrivalSpeed="14.07" duration="71.00" routeLength="286.33" waitingTime="40.00" waitingCount="1" stopTime="0.00" timeLoss="50.23" rerouteNo="0" devices="tripinfo_veh_82" vType="normal" speedFactor="1.02" vaporized=""/>
    <tripinfo id="veh_35" depart="57.00" departLane="L10_0" departPos="5.10" departSpeed="0.00" departDelay="0.00" arrival="198.00" arrivalLane="A1_1" arrivalPos="192.80" arrivalSpeed="12.98" duration="141.00" routeLength="694.15" waitingTime="62.00" waitingCount="3" stopTime="0.00" timeLoss="91.17" rerouteNo="0" devices="tripinfo_veh_35" vType="normal" speedFactor="1.02" vaporized=""/>
    <tripinfo id="veh_61" depart="95.00" departLane="L4_0" departPos="5.10" departSpeed="0.00" departDelay="0.00" arrival="200.00" arrivalLane="L3_0" arrivalPos="89.60" arrivalSpeed="15.45" duration="105.00" routeLength="385.58" waitingTime="60.00" waitingCount="2" stopTime="0.00" timeLoss="78.76" rerouteNo="0" devices="tripinfo_veh_61" vType="normal" speedFactor="1.12" vaporized=""/>
    <tripinfo id="veh_63" depart="99.00" departLane="L4_0" departPos="5.10" departSpeed="0.00" departDelay="0.00" arrival="200.00" arrivalLane="L1_0" arrivalPos="89.60" arrivalSpeed="13.71" duration="101.00" routeLength="377.76" waitingTime="57.00" waitingCount="2" stopTime="0.00" timeLoss="71.12" rerouteNo="0" devices="tripinfo_veh_63" vType="autonomous" speedFactor="0.99" vaporized=""/>