<?xml version="1.0" encoding="UTF-8"?>

<!-- generated on 2024-02-26 14:00:21 by Eclipse SUMO GUI Version 1.19.0
<configuration xmlns:xsi="http://www.w3.org/2001/XMLSchema-instance" xsi:noNamespaceSchemaLocation="http://sumo.dlr.de/xsd/sumoConfiguration.xsd">

    <input>
        <net-file value="tjunction.net.xml"/>
        <route-files value="tjunction.rou.xml"/>
    </input>

    <output>
        <tripinfo-output value="tripinfo.xml"/>
    </output>

    <time>
        <begin value="0"/>
        <end value="3600"/>
    </time>

    <traci_server>
        <remote-port value="61090"/>
    </traci_server>

</configuration>
-->

<tripinfos xmlns:xsi="http://www.w3.org/2001/XMLSchema-instance" xsi:noNamespaceSchemaLocation="http://sumo.dlr.de/xsd/tripinfo_file.xsd">
</tripinfos>
id="veh_0" depart="0.00" departLane="L4_0" departPos="5.10" departSpeed="0.00" departDelay="0.00" arrival="27.00" arrivalLane="L3_0" arrivalPos="92.80" arrivalSpeed="14.49" duration="27.00" routeLength="289.53" waitingTime="0.00" waitingCount="0" stopTime="0.00" timeLoss="6.24" rerouteNo="0" devices="tripinfo_veh_0" vType="uniform_car" speedFactor="1.06" vaporized=""/>
    <tripinfo id="veh_1" depart="1.00" departLane="L2_0" departPos="5.10" departSpeed="0.00" departDelay="0.00" arrival="30.00" arrivalLane="L5_0" arrivalPos="192.80" arrivalSpeed="13.03" duration="29.00" routeLength="294.69" waitingTime="0.00" waitingCount="0" stopTime="0.00" timeLoss="5.07" rerouteNo="0" devices="tripinfo_veh_1" vType="uniform_car" speedFactor="0.94" vaporized=""/>
    <tripinfo id="veh_2" depart="3.00" departLane="L4_0" departPos="5.10" departSpeed="0.00" departDelay="1.00" arrival="30.00" arrivalLane="L3_0" arrivalPos="92.80" arrivalSpeed="12.92" duration="27.00" routeLength="289.53" waitingTime="0.00" waitingCount="0" stopTime="0.00" timeLoss="5.76" rerouteNo="0" devices="tripinfo_veh_2" vType="uniform_car" speedFactor="1.01" vaporized=""/>
    <tripinfo id="veh_3" depart="4.00" departLane="L2_0" departPos="5.10" departSpeed="0.00" departDelay="1.00" arrival="31.00" arrivalLane="L5_0" arrivalPos="192.80" arrivalSpeed="13.76" duration="27.00" routeLength="294.69" waitingTime="0.00" waitingCount="0" stopTime="0.00" timeLoss="6.74" rerouteNo="0" devices="tripinfo_veh_3" vType="uniform_car" speedFactor="1.08" vaporized=""/>
    <tripinfo id="veh_4" depart="7.00" departLane="L2_0" departPos="5.10" departSpeed="0.00" departDelay="3.00" arrival="34.00" arrivalLane="L1_0" arrivalPos="192.80" arrivalSpeed="13.63" duration="27.00" routeLength="289.53" waitingTime="0.00" waitingCount="0" stopTime="0.00" timeLoss="5.99" rerouteNo="0" devices="tripinfo_veh_4" vType="uniform_car" speedFactor="1.03" vaporized=""/>
    <tripinfo id="veh_5" depart="6.00" departLane="L4_0" departPos="5.10" departSpeed="0.00" departDelay="1.00" arrival="37.00" arrivalLane="L3_0" arrivalPos="92.80" arrivalSpeed="11.19" duration="31.00" routeLength="289.53" waitingTime="0.00" waitingCount="0" stopTime="0.00" timeLoss="5.38" rerouteNo="0" devices="tripinfo_veh_5" vType="uniform_car" speedFactor="0.83" vaporized=""/>
    <tripinfo id="veh_6" depart="10.00" departLane="L2_0" departPos="5.10" departSpeed="0.00" departDelay="4.00" arrival="37.00" arrivalLane="L1_0" arrivalPos="192.80" arrivalSpeed="13.37" duration="27.00" routeLength="289.53" waitingTime="0.00" waitingCount="0" stopTime="0.00" timeLoss="6.31" rerouteNo="0" devices="tripinfo_veh_6" vType="uniform_car" speedFactor="1.05" vaporized=""/>
    <tripinfo id="veh_12" depart="12.00" departLane="L4_0" departPos="5.10" departSpeed="0.00" departDelay="0.00" arrival="40.00" arrivalLane="L3_0" arrivalPos="92.80" arrivalSpeed="13.56" duration="28.00" routeLength="289.53" waitingTime="0.00" waitingCount="0" stopTime="0.00" timeLoss="6.36" rerouteNo="0" devices="tripinfo_veh_12" vType="uniform_car" speedFactor="1.05" vaporized=""/>
    <tripinfo id="veh_13" depart="15.00" departLane="L4_0" departPos="5.10" departSpeed="0.00" departDelay="2.00" arrival="41.00" arrivalLane="L3_0" arrivalPos="92.80" arrivalSpeed="14.44" duration="26.00" routeLength="289.53" waitingTime="0.00" waitingCount="0" stopTime="0.00" timeLoss="6.78" rerouteNo="0" devices="tripinfo_veh_13" vType="uniform_car" speedFactor="1.12" vaporized=""/>
    <tripinfo id="veh_8" depart="13.00" departLane="L2_0" departPos="5.10" departSpeed="0.00" departDelay="5.00" arrival="42.00" arrivalLane="L5_0" arrivalPos="192.80" arrivalSpeed="12.30" duration="29.00" routeLength="294.69" waitingTime="0.00" waitingCount="0" stopTime="0.00" timeLoss="5.29" rerouteNo="0" devices="tripinfo_veh_8" vType="uniform_car" speedFactor="0.94" vaporized=""/>
    <tripinfo id="veh_9" depart="16.00" departLane="L2_0" departPos="5.10" departSpeed="0.00" departDelay="7.00" arrival="47.00" arrivalLane="L5_0" arrivalPos="192.80" arrivalSpeed="10.83" duration="31.00" routeLength="294.69" waitingTime="0.00" waitingCount="0" stopTime="0.00" timeLoss="5.14" rerouteNo="0" devices="tripinfo_veh_9" vType="uniform_car" speedFactor="0.86" vaporized=""/>
    <tripinfo id="veh_14" depart="18.00" departLane="L4_0" departPos="5.10" departSpeed="0.00" departDelay="4.00" arrival="48.00" arrivalLane="L3_0" arrivalPos="92.80" arrivalSpeed="12.52" duration="30.00" routeLength="289.53" waitingTime="0.00" waitingCount="0" stopTime="0.00" timeLoss="7.91" rerouteNo="0" devices="tripinfo_veh_14" vType="uniform_car" speedFactor="0.99" vaporized=""/>
    <tripinfo id="veh_11" depart="19.00" departLane="L2_0" departPos="5.10" departSpeed="0.00" departDelay="8.00" arrival="49.00" arrivalLane="L5_0" arrivalPos="192.80" arrivalSpeed="14.16" duration="30.00" routeLength="294.69" waitingTime="0.00" waitingCount="0" stopTime="0.00" timeLoss="7.83" rerouteNo="0" devices="tripinfo_veh_11" vType="uniform_car" speedFactor="1.03" vaporized=""/>
    <tripinfo id="veh_15" depart="21.00" departLane="L4_0" departPos="5.10" departSpeed="0.00" departDelay="6.00" arrival="52.00" arrivalLane="L3_0" arrivalPos="92.80" arrivalSpeed="12.27" duration="31.00" routeLength="289.53" waitingTime="0.00" waitingCount="0" stopTime="0.00" timeLoss="6.75" rerouteNo="0" devices="tripinfo_veh_15" vType="uniform_car" speedFactor="0.93" vaporized=""/>
    <tripinfo id="veh_16" depart="22.00" departLane="L2_0" departPos="5.10" departSpeed="0.00" departDelay="6.00" arrival="53.00" arrivalLane="L1_0" arrivalPos="192.80" arrivalSpeed="11.12" duration="31.00" routeLength="289.53" waitingTime="0.00" waitingCount="0" stopTime="0.00" timeLoss="6.01" rerouteNo="0" devices="tripinfo_veh_16" vType="uniform_car" speedFactor="0.88" vaporized=""/>
    <tripinfo id="veh_23" depart="24.00" departLane="L4_0" departPos="5.10" departSpeed="0.00" departDelay="1.00" arrival="55.00" arrivalLane="L3_0" arrivalPos="92.80" arrivalSpeed="11.48" duration="31.00" routeLength="289.53" waitingTime="0.00" waitingCount="0" stopTime="0.00" timeLoss="6.00" rerouteNo="0" devices="tripinfo_veh_23" vType="uniform_car" speedFactor="0.89" vaporized=""/>
    <tripinfo id="veh_7" depart="7.00" departLane="L0_0" departPos="5.10" departSpeed="0.00" departDelay="0.00" arrival="58.00" arrivalLane="L5_0" arrivalPos="192.80" arrivalSpeed="11.28" duration="51.00" routeLength="394.90" waitingTime="9.00" waitingCount="1" stopTime="0.00" timeLoss="18.26" rerouteNo="0" devices="tripinfo_veh_7" vType="uniform_car" speedFactor="0.89" vaporized=""/>
    <tripinfo id="veh_10" depart="10.00" departLane="L0_0" departPos="5.10" departSpeed="0.00" departDelay="0.00" arrival="59.00" arrivalLane="L5_0" arrivalPos="192.80" arrivalSpeed="14.37" duration="49.00" routeLength="394.90" waitingTime="8.00" waitingCount="1" stopTime="0.00" timeLoss="22.82" rerouteNo="0" devices="tripinfo_veh_10" vType="uniform_car" speedFactor="1.09" vaporized=""/>
    <tripinfo id="veh_25" depart="27.00" departLane="L4_0" departPos="5.10" departSpeed="0.00" departDelay="2.00" arrival="59.00" arrivalLane="L3_0" arrivalPos="92.80" arrivalSpeed="11.26" duration="32.00" routeLength="289.53" waitingTime="0.00" waitingCount="0" stopTime="0.00" timeLoss="6.75" rerouteNo="0" devices="tripinfo_veh_25" vType="uniform_car" speedFactor="0.87" vaporized=""/>
    <tripinfo id="veh_19" depart="19.00" departLane="L0_0" departPos="5.10" departSpeed="0.00" departDelay="0.00" arrival="61.00" arrivalLane="L5_0" arrivalPos="192.80" arrivalSpeed="15.71" duration="42.00" routeLength="394.90" waitingTime="3.00" waitingCount="1" stopTime="0.00" timeLoss="16.90" rerouteNo="0" devices="tripinfo_veh_19" vType="uniform_car" speedFactor="1.16" vaporized=""/>
    <tripinfo id="veh_29" depart="30.00" departLane="L4_0" departPos="5.10" departSpeed="0.00" departDelay="1.00" arrival="61.00" arrivalLane="L3_0" arrivalPos="92.80" arrivalSpeed="12.68" duration="31.00" routeLength="289.53" waitingTime="0.00" waitingCount="0" stopTime="0.00" timeLoss="6.96" rerouteNo="0" devices="tripinfo_veh_29" vType="uniform_car" speedFactor="0.93" vaporized=""/>
    <tripinfo id="veh_22" depart="22.00" departLane="L0_0" departPos="5.10" departSpeed="0.00" departDelay="0.00" arrival="63.00" arrivalLane="L5_0" arrivalPos="192.80" arrivalSpeed="12.32" duration="41.00" routeLength="394.90" waitingTime="0.00" waitingCount="0" stopTime="0.00" timeLoss="11.44" rerouteNo="0" devices="tripinfo_veh_22" vType="uniform_car" speedFactor="0.97" vaporized=""/>
    <tripinfo id="veh_31" depart="33.00" departLane="L4_0" departPos="5.10" departSpeed="0.00" departDelay="2.00" arrival="63.00" arrivalLane="L3_0" arrivalPos="92.80" arrivalSpeed="15.73" duration="30.00" routeLength="289.53" waitingTime="0.00" waitingCount="0" stopTime="0.00" timeLoss="10.29" rerouteNo="0" devices="tripinfo_veh_31" vType="uniform_car" speedFactor="1.15" vaporized=""/>
    <tripinfo id="veh_27" depart="27.00" departLane="L0_0" departPos="5.10" departSpeed="0.00" departDelay="0.00" arrival="65.00" arrivalLane="L5_0" arrivalPos="192.80" arrivalSpeed="12.50" duration="38.00" routeLength="394.90" waitingTime="0.00" waitingCount="0" stopTime="0.00" timeLoss="7.51" rerouteNo="0" devices="tripinfo_veh_27" vType="uniform_car" speedFactor="0.95" vaporized=""/>
    <tripinfo id="veh_34" depart="36.00" departLane="L4_0" departPos="5.10" departSpeed="0.00" departDelay="2.00" arrival="66.00" arrivalLane="L3_0" arrivalPos="92.80" arrivalSpeed="12.78" duration="30.00" routeLength="289.53" waitingTime="0.00" waitingCount="0" stopTime="0.00" timeLoss="7.50" rerouteNo="0" devices="tripinfo_veh_34" vType="uniform_car" speedFactor="0.99" vaporized=""/>
    <tripinfo id="veh_36" depart="39.00" departLane="L4_0" departPos="5.10" departSpeed="0.00" departDelay="3.00" arrival="68.00" arrivalLane="L3_0" arrivalPos="92.80" arrivalSpeed="12.77" duration="29.00" routeLength="289.53" waitingTime="0.00" waitingCount="0" stopTime="0.00" timeLoss="6.98" rerouteNo="0" devices="tripinfo_veh_36" vType="uniform_car" speedFactor="0.97" vaporized=""/>
    <tripinfo id="veh_38" depart="38.00" departLane="L0_0" departPos="5.10" departSpeed="0.00" departDelay="0.00" arrival="69.00" arrivalLane="L5_0" arrivalPos="192.80" arrivalSpeed="14.81" duration="31.00" routeLength="394.90" waitingTime="0.00" waitingCount="0" stopTime="0.00" timeLoss="4.53" rerouteNo="0" devices="tripinfo_veh_38" vType="uniform_car" speedFactor="1.10" vaporized=""/>
    <tripinfo id="veh_43" depart="43.00" departLane="L0_0" departPos="5.10" departSpeed="0.00" departDelay="0.00" arrival="75.00" arrivalLane="L5_0" arrivalPos="192.80" arrivalSpeed="13.35" duration="32.00" routeLength="394.90" waitingTime="0.00" waitingCount="0" stopTime="0.00" timeLoss="4.28" rerouteNo="0" devices="tripinfo_veh_43" vType="uniform_car" speedFactor="1.04" vaporized=""/>
    <tripinfo id="veh_45" depart="46.00" departLane="L0_0" departPos="5.10" departSpeed="0.00" departDelay="1.00" arrival="77.00" arrivalLane="L5_0" arrivalPos="192.80" arrivalSpeed="14.65" duration="31.00" routeLength="394.90" waitingTime="0.00" waitingCount="0" stopTime="0.00" timeLoss="4.76" rerouteNo="0" devices="tripinfo_veh_45" vType="uniform_car" speedFactor="1.09" vaporized=""/>
    <tripinfo id="veh_47" depart="47.00" departLane="L4_0" departPos="5.10" departSpeed="0.00" departDelay="0.00" arrival="77.00" arrivalLane="L3_0" arrivalPos="92.80" arrivalSpeed="12.16" duration="30.00" routeLength="289.53" waitingTime="0.00" waitingCount="0" stopTime="0.00" timeLoss="5.52" rerouteNo="0" devices="tripinfo_veh_47" vType="uniform_car" speedFactor="0.90" vaporized=""/>
    <tripinfo id="veh_48" depart="50.00" departLane="L4_0" departPos="5.10" departSpeed="0.00" departDelay="2.00" arrival="81.00" arrivalLane="L3_0" arrivalPos="92.80" arrivalSpeed="12.11" duration="31.00" routeLength="289.53" waitingTime="0.00" waitingCount="0" stopTime="0.00" timeLoss="5.49" rerouteNo="0" devices="tripinfo_veh_48" vType="uniform_car" speedFactor="0.88" vaporized=""/>
    <tripinfo id="veh_50" depart="53.00" departLane="L4_0" departPos="5.10" departSpeed="0.00" departDelay="3.00" arrival="84.00" arrivalLane="L3_0" arrivalPos="92.80" arrivalSpeed="10.77" duration="31.00" routeLength="289.53" waitingTime="0.00" waitingCount="0" stopTime="0.00" timeLoss="6.09" rerouteNo="0" devices="tripinfo_veh_50" vType="uniform_car" speedFactor="0.85" vaporized=""/>
    <tripinfo id="veh_51" depart="56.00" departLane="L4_0" departPos="5.10" departSpeed="0.00" departDelay="5.00" arrival="86.00" arrivalLane="L3_0" arrivalPos="92.80" arrivalSpeed="14.92" duration="30.00" routeLength="289.53" waitingTime="0.00" waitingCount="0" stopTime="0.00" timeLoss="10.76" rerouteNo="0" devices="tripinfo_veh_51" vType="uniform_car" speedFactor="1.17" vaporized=""/>
    <tripinfo id="veh_58" depart="59.00" departLane="L4_0" departPos="5.10" departSpeed="0.00" departDelay="1.00" arrival="88.00" arrivalLane="L3_0" arrivalPos="92.80" arrivalSpeed="14.15" duration="29.00" routeLength="289.53" waitingTime="0.00" waitingCount="0" stopTime="0.00" timeLoss="7.44" rerouteNo="0" devices="tripinfo_veh_58" vType="uniform_car" speedFactor="1.02" vaporized=""/>
    <tripinfo id="veh_59" depart="62.00" departLane="L4_0" departPos="5.10" departSpeed="0.00" departDelay="3.00" arrival="91.00" arrivalLane="L3_0" arrivalPos="92.80" arrivalSpeed="13.13" duration="29.00" routeLength="289.53" waitingTime="0.00" waitingCount="0" stopTime="0.00" timeLoss="6.82" rerouteNo="0" devices="tripinfo_veh_59" vType="uniform_car" speedFactor="0.97" vaporized=""/>
    <tripinfo id="veh_17" depart="25.00" departLane="L2_0" departPos="5.10" departSpeed="0.00" departDelay="8.00" arrival="92.00" arrivalLane="L5_0" arrivalPos="192.80" arrivalSpeed="13.06" duration="67.00" routeLength="294.69" waitingTime="35.00" waitingCount="1" stopTime="0.00" timeLoss="43.46" rerouteNo="0" devices="tripinfo_veh_17" vType="uniform_car" speedFactor="0.94" vaporized=""/>
    <tripinfo id="veh_63" depart="65.00" departLane="L4_0" departPos="5.10" departSpeed="0.00" departDelay="2.00" arrival="94.00" arrivalLane="L3_0" arrivalPos="92.80" arrivalSpeed="12.48" duration="29.00" routeLength="289.53" waitingTime="0.00" waitingCount="0" stopTime="0.00" timeLoss="6.40" rerouteNo="0" devices="tripinfo_veh_63" vType="uniform_car" speedFactor="0.99" vaporized=""/>
    <tripinfo id="veh_18" depart="28.00" departLane="L2_0" departPos="5.10" departSpeed="0.00" departDelay="10.00" arrival="95.00" arrivalLane="L1_0" arrivalPos="192.80" arrivalSpeed="12.22" duration="67.00" routeLength="289.53" waitingTime="33.00" waitingCount="1" stopTime="0.00" timeLoss="43.05" rerouteNo="0" devices="tripinfo_veh_18" vType="uniform_car" speedFactor="0.94" vaporized=""/>
    <tripinfo id="veh_20" depart="31.00" departLane="L2_0" departPos="5.10" departSpeed="0.00" departDelay="11.00" arrival="97.00" arrivalLane="L1_0" arrivalPos="192.80" arrivalSpeed="13.75" duration="66.00" routeLength="289.53" waitingTime="32.00" waitingCount="1" stopTime="0.00" timeLoss="43.62" rerouteNo="0" devices="tripinfo_veh_20" vType="uniform_car" speedFactor="1.02" vaporized=""/>
    <tripinfo id="veh_21" depart="34.00" departLane="L2_0" departPos="5.10" departSpeed="0.00" departDelay="13.00" arrival="98.00" arrivalLane="L1_0" arrivalPos="192.80" arrivalSpeed="13.65" duration="64.00" routeLength="289.53" waitingTime="30.00" waitingCount="1" stopTime="0.00" timeLoss="42.82" rerouteNo="0" devices="tripinfo_veh_21" vType="uniform_car" speedFactor="1.01" vaporized=""/>
    <tripinfo id="veh_70" depart="70.00" departLane="L4_0" departPos="5.10" departSpeed="0.00" departDelay="0.00" arrival="98.00" arrivalLane="L3_0" arrivalPos="92.80" arrivalSpeed="13.04" duration="28.00" routeLength="289.53" waitingTime="0.00" waitingCount="0" stopTime="0.00" timeLoss="5.95" rerouteNo="0" devices="tripinfo_veh_70" vType="uniform_car" speedFactor="1.02" vaporized=""/>
    <tripinfo id="veh_75" depart="75.00" departLane="L4_0" departPos="5.10" departSpeed="0.00" departDelay="0.00" arrival="102.00" arrivalLane="L3_0" arrivalPos="92.80" arrivalSpeed="13.65" duration="27.00" routeLength="289.53" waitingTime="0.00" waitingCount="0" stopTime="0.00" timeLoss="5.27" rerouteNo="0" devices="tripinfo_veh_75" vType="uniform_car" speedFactor="0.98" vaporized=""/>
    <tripinfo id="veh_24" depart="37.00" departLane="L2_0" departPos="5.10" departSpeed="0.00" departDelay="13.00" arrival="105.00" arrivalLane="L1_0" arrivalPos="192.80" arrivalSpeed="10.74" duration="68.00" routeLength="289.53" waitingTime="29.00" waitingCount="1" stopTime="0.00" timeLoss="41.24" rerouteNo="0" devices="tripinfo_veh_24" vType="uniform_car" speedFactor="0.83" vaporized=""/>
    <tripinfo id="veh_28" depart="43.00" departLane="L2_0" departPos="5.10" departSpeed="0.00" departDelay="15.00" arrival="105.00" arrivalLane="L5_0" arrivalPos="192.80" arrivalSpeed="14.63" duration="62.00" routeLength="294.69" waitingTime="27.00" waitingCount="1" stopTime="0.00" timeLoss="42.37" rerouteNo="0" devices="tripinfo_veh_28" vType="uniform_car" speedFactor="1.13" vaporized=""/>
    <tripinfo id="veh_77" depart="78.00" departLane="L4_0" departPos="5.10" departSpeed="0.00" departDelay="1.00" arrival="106.00" arrivalLane="L3_0" arrivalPos="92.80" arrivalSpeed="13.44" duration="28.00" routeLength="289.53" waitingTime="0.00" waitingCount="0" stopTime="0.00" timeLoss="5.35" rerouteNo="0" devices="tripinfo_veh_77" vType="uniform_car" speedFactor="0.98" vaporized=""/>
    <tripinfo id="veh_26" depart="40.00" departLane="L2_0" departPos="5.10" departSpeed="0.00" departDelay="14.00" arrival="107.00" arrivalLane="L1_0" arrivalPos="192.80" arrivalSpeed="12.19" duration="67.00" routeLength="289.53" waitingTime="27.00" waitingCount="1" stopTime="0.00" timeLoss="42.46" rerouteNo="0" devices="tripinfo_veh_26" vType="uniform_car" speedFactor="0.92" vaporized=""/>
    <tripinfo id="veh_30" depart="46.00" departLane="L2_0" departPos="5.10" departSpeed="0.00" departDelay="16.00" arrival="107.00" arrivalLane="L5_0" arrivalPos="192.80" arrivalSpeed="16.35" duration="61.00" routeLength="294.69" waitingTime="25.00" waitingCount="1" stopTime="0.00" timeLoss="41.81" rerouteNo="0" devices="tripinfo_veh_30" vType="uniform_car" speedFactor="1.18" vaporized=""/>
    <tripinfo id="veh_78" depart="81.00" departLane="L4_0" departPos="5.10" departSpeed="0.00" departDelay="3.00" arrival="109.00" arrivalLane="L3_0" arrivalPos="92.80" arrivalSpeed="13.11" duration="28.00" routeLength="289.53" waitingTime="0.00" waitingCount="0" stopTime="0.00" timeLoss="5.79" rerouteNo="0" devices="tripinfo_veh_78" vType="uniform_car" speedFactor="1.01" vaporized=""/>
    <tripinfo id="veh_32" depart="49.00" departLane="L2_0" departPos="5.10" departSpeed="0.00" departDelay="17.00" arrival="111.00" arrivalLane="L5_0" arrivalPos="192.80" arrivalSpeed="12.94" duration="62.00" routeLength="294.69" waitingTime="24.00" waitingCount="1" stopTime="0.00" timeLoss="39.91" rerouteNo="0" devices="tripinfo_veh_32" vType="uniform_car" speedFactor="1.01" vaporized=""/>
    <tripinfo id="veh_84" depart="84.00" departLane="L4_0" departPos="5.10" departSpeed="0.00" departDelay="0.00" arrival="111.00" arrivalLane="L3_0" arrivalPos="92.80" arrivalSpeed="15.24" duration="27.00" routeLength="289.53" waitingTime="0.00" waitingCount="0" stopTime="0.00" timeLoss="7.59" rerouteNo="0" devices="tripinfo_veh_84" vType="uniform_car" speedFactor="1.15" vaporized=""/>
    <tripinfo id="veh_33" depart="52.00" departLane="L2_0" departPos="5.10" departSpeed="0.00" departDelay="19.00" arrival="112.00" arrivalLane="L1_0" arrivalPos="192.80" arrivalSpeed="15.94" duration="60.00" routeLength="289.53" waitingTime="22.00" waitingCount="1" stopTime="0.00" timeLoss="40.43" rerouteNo="0" devices="tripinfo_veh_33" vType="uniform_car" speedFactor="1.17" vaporized=""/>
    <tripinfo id="veh_35" depart="55.00" departLane="L2_0" departPos="5.10" departSpeed="0.00" departDelay="20.00" arrival="115.00" arrivalLane="L1_0" arrivalPos="192.80" arrivalSpeed="13.52" duration="60.00" routeLength="289.53" waitingTime="22.00" waitingCount="1" stopTime="0.00" timeLoss="38.85" rerouteNo="0" devices="tripinfo_veh_35" vType="uniform_car" speedFactor="1.02" vaporized=""/>
    <tripinfo id="veh_85" depart="87.00" departLane="L4_0" departPos="5.10" departSpeed="0.00" departDelay="2.00" arrival="115.00" arrivalLane="L3_0" arrivalPos="92.80" arrivalSpeed="12.86" duration="28.00" routeLength="289.53" waitingTime="0.00" waitingCount="0" stopTime="0.00" timeLoss="6.18" rerouteNo="0" devices="tripinfo_veh_85" vType="uniform_car" speedFactor="0.98" vaporized=""/>
    <tripinfo id="veh_37" depart="58.00" departLane="L2_0" departPos="5.10" departSpeed="0.00" departDelay="21.00" arrival="116.00" arrivalLane="L5_0" arrivalPos="192.80" arrivalSpeed="15.22" duration="58.00" routeLength="294.69" waitingTime="21.00" waitingCount="1" stopTime="0.00" timeLoss="38.67" rerouteNo="0" devices="tripinfo_veh_37" vType="uniform_car" speedFactor="1.18" vaporized=""/>
    <tripinfo id="veh_89" depart="90.00" departLane="L4_0" departPos="5.10" departSpeed="0.00" departDelay="1.00" arrival="118.00" arrivalLane="L3_0" arrivalPos="92.80" arrivalSpeed="13.43" duration="28.00" routeLength="289.53" waitingTime="0.00" waitingCount="0" stopTime="0.00" timeLoss="6.03" rerouteNo="0" devices="tripinfo_veh_89" vType="uniform_car" speedFactor="1.02" vaporized=""/>
    <tripinfo id="veh_90" depart="93.00" departLane="L4_0" departPos="5.10" departSpeed="0.00" departDelay="3.00" arrival="121.00" arrivalLane="L3_0" arrivalPos="92.80" arrivalSpeed="13.85" duration="28.00" routeLength="289.53" waitingTime="0.00" waitingCount="0" stopTime="0.00" timeLoss="6.49" rerouteNo="0" devices="tripinfo_veh_90" vType="uniform_car" speedFactor="1.02" vaporized=""/>
    <tripinfo id="veh_39" depart="88.00" departLane="L2_0" departPos="5.10" departSpeed="0.00" departDelay="49.00" arrival="122.00" arrivalLane="L1_0" arrivalPos="192.80" arrivalSpeed="12.29" duration="34.00" routeLength="289.53" waitingTime="0.00" waitingCount="0" stopTime="0.00" timeLoss="9.36" rerouteNo="0" devices="tripinfo_veh_39" vType="uniform_car" speedFactor="0.90" vaporized=""/>
    <tripinfo id="veh_64" depart="64.00" departLane="L0_0" departPos="5.10" departSpeed="0.00" departDelay="0.00" arrival="127.00" arrivalLane="L5_0" arrivalPos="192.80" arrivalSpeed="12.40" duration="63.00" routeLength="394.90" waitingTime="21.00" waitingCount="1" stopTime="0.00" timeLoss="32.67" rerouteNo="0" devices="tripinfo_veh_64" vType="uniform_car" speedFactor="0.94" vaporized=""/>
    <tripinfo id="veh_72" depart="72.00" departLane="L0_0" departPos="5.10" departSpeed="0.00" departDelay="0.00" arrival="129.00" arrivalLane="L5_0" arrivalPos="192.80" arrivalSpeed="12.53" duration="57.00" routeLength="394.90" waitingTime="17.00" waitingCount="1" stopTime="0.00" timeLoss="26.57" rerouteNo="0" devices="tripinfo_veh_72" vType="uniform_car" speedFactor="0.94" vaporized=""/>
    <tripinfo id="veh_76" depart="76.00" departLane="L0_0" departPos="5.10" departSpeed="0.00" departDelay="0.00" arrival="131.00" arrivalLane="L5_0" arrivalPos="192.80" arrivalSpeed="14.33" duration="55.00" routeLength="394.90" waitingTime="14.00" waitingCount="1" stopTime="0.00" timeLoss="26.85" rerouteNo="0" devices="tripinfo_veh_76" vType="uniform_car" speedFactor="1.03" vaporized=""/>
    <tripinfo id="veh_105" depart="105.00" departLane="L4_0" departPos="5.10" departSpeed="0.00" departDelay="0.00" arrival="132.00" arrivalLane="L3_0" arrivalPos="92.80" arrivalSpeed="13.70" duration="27.00" routeLength="289.53" waitingTime="0.00" waitingCount="0" stopTime="0.00" timeLoss="6.26" rerouteNo="0" devices="tripinfo_veh_105" vType="uniform_car" speedFactor="1.07" vaporized=""/>
    <tripinfo id="veh_82" depart="82.00" departLane="L0_0" departPos="5.10" departSpeed="0.00" departDelay="0.00" arrival="133.00" arrivalLane="L5_0" arrivalPos="192.80" arrivalSpeed="13.50" duration="51.00" routeLength="394.90" waitingTime="10.00" waitingCount="1" stopTime="0.00" timeLoss="22.13" rerouteNo="0" devices="tripinfo_veh_82" vType="uniform_car" speedFactor="1.02" vaporized=""/>
    <tripinfo id="veh_87" depart="87.00" departLane="L0_0" departPos="5.10" departSpeed="0.00" departDelay="0.00" arrival="134.00" arrivalLane="L5_0" arrivalPos="192.80" arrivalSpeed="14.45" duration="47.00" routeLength="394.90" waitingTime="6.00" waitingCount="1" stopTime="0.00" timeLoss="19.59" rerouteNo="0" devices="tripinfo_veh_87" vType="uniform_car" speedFactor="1.04" vaporized=""/>
    <tripinfo id="veh_106" depart="108.00" departLane="L4_0" departPos="5.10" departSpeed="0.00" departDelay="2.00" arrival="135.00" arrivalLane="L3_0" arrivalPos="92.80" arrivalSpeed="13.20" duration="27.00" routeLength="289.53" waitingTime="0.00" waitingCount="0" stopTime="0.00" timeLoss="5.53" rerouteNo="0" devices="tripinfo_veh_106" vType="uniform_car" speedFactor="1.01" vaporized=""/>
    <tripinfo id="veh_88" depart="90.00" departLane="L0_0" departPos="5.10" departSpeed="0.00" departDelay="2.00" arrival="136.00" arrivalLane="L5_0" arrivalPos="192.80" arrivalSpeed="13.15" duration="46.00" routeLength="394.90" waitingTime="6.00" waitingCount="1" stopTime="0.00" timeLoss="17.67" rerouteNo="0" devices="tripinfo_veh_88" vType="uniform_car" speedFactor="1.01" vaporized=""/>
    <tripinfo id="veh_107" depart="111.00" departLane="L4_0" departPos="5.10" departSpeed="0.00" departDelay="4.00" arrival="138.00" arrivalLane="L3_0" arrivalPos="92.80" arrivalSpeed="14.19" duration="27.00" routeLength="289.53" waitingTime="0.00" waitingCount="0" stopTime="0.00" timeLoss="5.60" rerouteNo="0" devices="tripinfo_veh_107" vType="uniform_car" speedFactor="1.03" vaporized=""/>
    <tripinfo id="veh_93" depart="93.00" departLane="L0_0" departPos="5.10" departSpeed="0.00" departDelay="0.00" arrival="140.00" arrivalLane="L5_0" arrivalPos="192.80" arrivalSpeed="12.07" duration="47.00" routeLength="394.90" waitingTime="4.00" waitingCount="1" stopTime="0.00" timeLoss="15.69" rerouteNo="0" devices="tripinfo_veh_93" vType="uniform_car" speedFactor="0.92" vaporized=""/>
    <tripinfo id="veh_95" depart="96.00" departLane="L0_0" departPos="5.10" departSpeed="0.00" departDelay="1.00" arrival="142.00" arrivalLane="L5_0" arrivalPos="192.80" arrivalSpeed="14.01" duration="46.00" routeLength="394.90" waitingTime="2.00" waitingCount="1" stopTime="0.00" timeLoss="18.31" rerouteNo="0" devices="tripinfo_veh_95" vType="uniform_car" speedFactor="1.06" vaporized=""/>
    <tripinfo id="veh_96" depart="99.00" departLane="L0_0" departPos="5.10" departSpeed="0.00" departDelay="3.00" arrival="143.00" arrivalLane="L5_0" arrivalPos="192.80" arrivalSpeed="12.91" duration="44.00" routeLength="394.90" waitingTime="0.00" waitingCount="0" stopTime="0.00" timeLoss="15.79" rerouteNo="0" devices="tripinfo_veh_96" vType="uniform_car" speedFactor="1.01" vaporized=""/>
    <tripinfo id="veh_110" depart="114.00" departLane="L4_0" departPos="5.10" departSpeed="0.00" departDelay="4.00" arrival="143.00" arrivalLane="L3_0" arrivalPos="92.80" arrivalSpeed="12.14" duration="29.00" routeLength="289.53" waitingTime="0.00" waitingCount="0" stopTime="0.00" timeLoss="5.24" rerouteNo="0" devices="tripinfo_veh_110" vType="uniform_car" speedFactor="0.93" vaporized=""/>
    <tripinfo id="veh_98" depart="102.00" departLane="L0_0" departPos="5.10" departSpeed="0.00" departDelay="4.00" arrival="145.00" arrivalLane="L5_0" arrivalPos="192.80" arrivalSpeed="14.34" duration="43.00" routeLength="394.90" waitingTime="0.00" waitingCount="0" stopTime="0.00" timeLoss="17.17" rerouteNo="0" devices="tripinfo_veh_98" vType="uniform_car" speedFactor="1.12" vaporized=""/>
    <tripinfo id="veh_113" depart="117.00" departLane="L4_0" departPos="5.10" departSpeed="0.00" departDelay="4.00" arrival="145.00" arrivalLane="L3_0" arrivalPos="92.80" arrivalSpeed="12.89" duration="28.00" routeLength="289.53" waitingTime="0.00" waitingCount="0" stopTime="0.00" timeLoss="6.67" rerouteNo="0" devices="tripinfo_veh_113" vType="uniform_car" speedFactor="1.01" vaporized=""/>
    <tripinfo id="veh_100" depart="105.00" departLane="L0_0" departPos="5.10" departSpeed="0.00" departDelay="5.00" arrival="147.00" arrivalLane="L5_0" arrivalPos="192.80" arrivalSpeed="13.65" duration="42.00" routeLength="394.90" waitingTime="0.00" waitingCount="0" stopTime="0.00" timeLoss="14.60" rerouteNo="0" devices="tripinfo_veh_100" vType="uniform_car" speedFactor="1.06" vaporized=""/>
    <tripinfo id="veh_114" depart="120.00" departLane="L4_0" departPos="5.10" departSpeed="0.00" departDelay="6.00" arrival="147.00" arrivalLane="L3_0" arrivalPos="92.80" arrivalSpeed="14.52" duration="27.00" routeLength="289.53" waitingTime="0.00" waitingCount="0" stopTime="0.00" timeLoss="7.04" rerouteNo="0" devices="tripinfo_veh_114" vType="uniform_car" speedFactor="1.10" vaporized=""/>