<?xml version="1.0" encoding="UTF-8"?>

<!-- generated on 2024-03-27 22:56:02 by Eclipse SUMO GUI Version 1.19.0
<configuration xmlns:xsi="http://www.w3.org/2001/XMLSchema-instance" xsi:noNamespaceSchemaLocation="http://sumo.dlr.de/xsd/sumoConfiguration.xsd">

    <input>
        <net-file value="tjunction.net.xml"/>
        <route-files value="tjunction.rou.xml"/>
    </input>

    <output>
        <tripinfo-output value="tripinfo.xml"/>
    </output>

    <time>
        <begin value="0"/>
        <end value="3600"/>
    </time>

    <traci_server>
        <remote-port value="55800"/>
    </traci_server>

</configuration>
-->

<tripinfos xmlns:xsi="http://www.w3.org/2001/XMLSchema-instance" xsi:noNamespaceSchemaLocation="http://sumo.dlr.de/xsd/tripinfo_file.xsd">
    <tripinfo id="veh_1" depart="3.00" departLane="L6_0" departPos="5.10" departSpeed="0.00" departDelay="0.00" arrival="21.00" arrivalLane="L5_0" arrivalPos="89.60" arrivalSpeed="13.03" duration="18.00" routeLength="194.90" waitingTime="0.00" waitingCount="0" stopTime="0.00" timeLoss="2.10" rerouteNo="0" devices="tripinfo_veh_1" vType="autonomous" speedFactor="0.94" vaporized=""/>
    <tripinfo id="veh_4" depart="12.00" departLane="A7_0" departPos="5.10" departSpeed="0.00" departDelay="0.00" arrival="38.00" arrivalLane="L9_0" arrivalPos="89.60" arrivalSpeed="14.31" duration="26.00" routeLength="286.33" waitingTime="0.00" waitingCount="0" stopTime="0.00" timeLoss="5.35" rerouteNo="0" devices="tripinfo_veh_4" vType="autonomous" speedFactor="1.03" vaporized=""/>
    <tripinfo id="veh_0" depart="0.00" departLane="L6_0" departPos="5.10" departSpeed="0.00" departDelay="0.00" arrival="39.00" arrivalLane="L3_0" arrivalPos="89.60" arrivalSpeed="14.72" duration="39.00" routeLength="393.40" waitingTime="3.00" waitingCount="1" stopTime="0.00" timeLoss="10.71" rerouteNo="0" devices="tripinfo_veh_0" vType="autonomous" speedFactor="1.06" vaporized=""/>
    <tripinfo id="veh_2" depart="6.00" departLane="L6_0" departPos="5.10" departSpeed="0.00" departDelay="0.00" arrival="41.00" arrivalLane="L9_0" arrivalPos="89.60" arrivalSpeed="14.03" duration="35.00" routeLength="385.58" waitingTime="0.00" waitingCount="0" stopTime="0.00" timeLoss="4.78" rerouteNo="0" devices="tripinfo_veh_2" vType="autonomous" speedFactor="1.01" vaporized=""/>
    <tripinfo id="veh_3" depart="9.00" departLane="L4_0" departPos="5.10" departSpeed="0.00" departDelay="0.00" arrival="43.00" arrivalLane="L9_0" arrivalPos="89.60" arrivalSpeed="15.04" duration="34.00" routeLength="393.40" waitingTime="0.00" waitingCount="0" stopTime="0.00" timeLoss="6.03" rerouteNo="0" devices="tripinfo_veh_3" vType="autonomous" speedFactor="1.08" vaporized=""/>
    <tripinfo id="veh_12" depart="36.00" departLane="L2_0" departPos="5.10" departSpeed="0.00" departDelay="0.00" arrival="64.00" arrivalLane="L1_0" arrivalPos="89.60" arrivalSpeed="14.54" duration="28.00" routeLength="194.90" waitingTime="8.00" waitingCount="1" stopTime="0.00" timeLoss="14.58" rerouteNo="0" devices="tripinfo_veh_12" vType="autonomous" speedFactor="1.05" vaporized=""/>
    <tripinfo id="veh_13" depart="39.00" departLane="L0_0" departPos="5.10" departSpeed="0.00" departDelay="0.00" arrival="68.00" arrivalLane="L3_0" arrivalPos="89.60" arrivalSpeed="15.60" duration="29.00" routeLength="194.90" waitingTime="7.00" waitingCount="1" stopTime="0.00" timeLoss="16.24" rerouteNo="0" devices="tripinfo_veh_13" vType="autonomous" speedFactor="1.12" vaporized=""/>
    <tripinfo id="veh_16" depart="48.00" departLane="L0_0" departPos="5.10" departSpeed="0.00" departDelay="0.00" arrival="71.00" arrivalLane="L3_0" arrivalPos="89.60" arrivalSpeed="12.20" duration="23.00" routeLength="194.90" waitingTime="0.00" waitingCount="0" stopTime="0.00" timeLoss="6.79" rerouteNo="0" devices="tripinfo_veh_16" vType="autonomous" speedFactor="0.88" vaporized=""/>
    <tripinfo id="veh_5" depart="15.00" departLane="L8_0" departPos="5.10" departSpeed="0.00" departDelay="0.00" arrival="75.00" arrivalLane="A6_1" arrivalPos="192.80" arrivalSpeed="11.54" duration="60.00" routeLength="294.15" waitingTime="29.00" waitingCount="1" stopTime="0.00" timeLoss="33.21" rerouteNo="0" devices="tripinfo_veh_5" vType="autonomous" speedFactor="0.83" vaporized=""/>
    <tripinfo id="veh_17" depart="51.00" departLane="L8_0" departPos="5.10" departSpeed="0.00" departDelay="0.00" arrival="78.00" arrivalLane="A6_1" arrivalPos="192.80" arrivalSpeed="13.08" duration="27.00" routeLength="294.15" waitingTime="0.00" waitingCount="0" stopTime="0.00" timeLoss="3.25" rerouteNo="0" devices="tripinfo_veh_17" vType="autonomous" speedFactor="0.94" vaporized=""/>
    <tripinfo id="veh_28" depart="84.00" departLane="L10_0" departPos="5.10" departSpeed="0.00" departDelay="0.00" arrival="107.00" arrivalLane="A6_0" arrivalPos="192.80" arrivalSpeed="15.72" duration="23.00" routeLength="286.33" waitingTime="0.00" waitingCount="0" stopTime="0.00" timeLoss="3.91" rerouteNo="0" devices="tripinfo_veh_28" vType="autonomous" speedFactor="1.13" vaporized=""/>
    <tripinfo id="veh_10" depart="30.00" departLane="L0_0" departPos="5.10" departSpeed="0.00" departDelay="0.00" arrival="116.00" arrivalLane="L7_0" arrivalPos="89.60" arrivalSpeed="15.15" duration="86.00" routeLength="385.58" waitingTime="43.00" waitingCount="2" stopTime="0.00" timeLoss="58.74" rerouteNo="0" devices="tripinfo_veh_10" vType="autonomous" speedFactor="1.09" vaporized=""/>
    <tripinfo id="veh_31" depart="93.00" departLane="A0_0" departPos="5.10" departSpeed="0.00" departDelay="0.00" arrival="116.00" arrivalLane="L3_0" arrivalPos="89.60" arrivalSpeed="16.03" duration="23.00" routeLength="286.33" waitingTime="0.00" waitingCount="0" stopTime="0.00" timeLoss="4.45" rerouteNo="0" devices="tripinfo_veh_31" vType="autonomous" speedFactor="1.15" vaporized=""/>
    <tripinfo id="veh_23" depart="69.00" departLane="A0_0" departPos="5.10" departSpeed="0.00" departDelay="0.00" arrival="117.00" arrivalLane="L1_0" arrivalPos="89.60" arrivalSpeed="12.36" duration="48.00" routeLength="294.15" waitingTime="17.00" waitingCount="1" stopTime="0.00" timeLoss="22.94" rerouteNo="0" devices="tripinfo_veh_23" vType="autonomous" speedFactor="0.89" vaporized=""/>
    <tripinfo id="veh_6" depart="18.00" departLane="L6_0" departPos="5.10" departSpeed="0.00" departDelay="0.00" arrival="119.00" arrivalLane="L3_0" arrivalPos="89.60" arrivalSpeed="14.53" duration="101.00" routeLength="393.40" waitingTime="62.00" waitingCount="3" stopTime="0.00" timeLoss="72.48" rerouteNo="0" devices="tripinfo_veh_6" vType="autonomous" speedFactor="1.05" vaporized=""/>
    <tripinfo id="veh_26" depart="78.00" departLane="L10_0" departPos="5.10" departSpeed="0.00" departDelay="0.00" arrival="119.00" arrivalLane="L5_0" arrivalPos="89.60" arrivalSpeed="12.74" duration="41.00" routeLength="385.58" waitingTime="1.00" waitingCount="1" stopTime="0.00" timeLoss="8.74" rerouteNo="0" devices="tripinfo_veh_26" vType="autonomous" speedFactor="0.92" vaporized=""/>
    <tripinfo id="veh_7" depart="21.00" departLane="L6_0" departPos="5.10" departSpeed="0.00" departDelay="0.00" arrival="120.00" arrivalLane="L9_0" arrivalPos="89.60" arrivalSpeed="12.31" duration="99.00" routeLength="385.58" waitingTime="53.00" waitingCount="3" stopTime="0.00" timeLoss="65.40" rerouteNo="0" devices="tripinfo_veh_7" vType="autonomous" speedFactor="0.89" vaporized=""/>
    <tripinfo id="veh_19" depart="57.00" departLane="L6_0" departPos="5.10" departSpeed="0.00" departDelay="0.00" arrival="120.00" arrivalLane="A1_0" arrivalPos="192.80" arrivalSpeed="16.09" duration="63.00" routeLength="494.15" waitingTime="22.00" waitingCount="1" stopTime="0.00" timeLoss="31.54" rerouteNo="0" devices="tripinfo_veh_19" vType="autonomous" speedFactor="1.16" vaporized=""/>
    <tripinfo id="veh_24" depart="72.00" departLane="L10_0" departPos="5.10" departSpeed="0.00" departDelay="0.00" arrival="120.00" arrivalLane="L7_0" arrivalPos="89.60" arrivalSpeed="11.47" duration="48.00" routeLength="393.40" waitingTime="4.00" waitingCount="1" stopTime="0.00" timeLoss="11.49" rerouteNo="0" devices="tripinfo_veh_24" vType="autonomous" speedFactor="0.83" vaporized=""/>
    <tripinfo id="veh_11" depart="33.00" departLane="L4_0" departPos="5.10" departSpeed="0.00" departDelay="0.00" arrival="121.00" arrivalLane="A6_0" arrivalPos="192.80" arrivalSpeed="14.26" duration="88.00" routeLength="494.15" waitingTime="43.00" waitingCount="2" stopTime="0.00" timeLoss="52.55" rerouteNo="0" devices="tripinfo_veh_11" vType="autonomous" speedFactor="1.03" vaporized=""/>
    <tripinfo id="veh_18" depart="54.00" departLane="L4_0" departPos="5.10" departSpeed="0.00" departDelay="0.00" arrival="121.00" arrivalLane="L9_0" arrivalPos="89.60" arrivalSpeed="13.00" duration="67.00" routeLength="393.40" waitingTime="25.00" waitingCount="2" stopTime="0.00" timeLoss="35.31" rerouteNo="0" devices="tripinfo_veh_18" vType="autonomous" speedFactor="0.94" vaporized=""/>
    <tripinfo id="veh_29" depart="87.00" departLane="L10_0" departPos="5.10" departSpeed="0.00" departDelay="0.00" arrival="123.00" arrivalLane="L5_0" arrivalPos="89.60" arrivalSpeed="12.94" duration="36.00" routeLength="385.58" waitingTime="0.00" waitingCount="0" stopTime="0.00" timeLoss="4.36" rerouteNo="0" devices="tripinfo_veh_29" vType="autonomous" speedFactor="0.93" vaporized=""/>
    <tripinfo id="veh_15" depart="45.00" departLane="L2_0" departPos="5.10" departSpeed="0.00" departDelay="0.00" arrival="132.00" arrivalLane="L11_0" arrivalPos="89.60" arrivalSpeed="12.87" duration="87.00" routeLength="577.76" waitingTime="30.00" waitingCount="2" stopTime="0.00" timeLoss="40.24" rerouteNo="0" devices="tripinfo_veh_15" vType="autonomous" speedFactor="0.93" vaporized=""/>
    <tripinfo id="veh_9" depart="27.00" departLane="A7_0" departPos="5.10" departSpeed="0.00" departDelay="0.00" arrival="133.00" arrivalLane="L1_0" arrivalPos="89.60" arrivalSpeed="11.90" duration="106.00" routeLength="686.33" waitingTime="41.00" waitingCount="1" stopTime="0.00" timeLoss="47.56" rerouteNo="0" devices="tripinfo_veh_9" vType="autonomous" speedFactor="0.86" vaporized=""/>
    <tripinfo id="veh_25" depart="75.00" departLane="L2_0" departPos="5.10" departSpeed="0.00" departDelay="0.00" arrival="133.00" arrivalLane="L5_0" arrivalPos="89.60" arrivalSpeed="12.12" duration="58.00" routeLength="385.58" waitingTime="17.00" waitingCount="2" stopTime="0.00" timeLoss="23.95" rerouteNo="0" devices="tripinfo_veh_25" vType="autonomous" speedFactor="0.87" vaporized=""/>
    <tripinfo id="veh_14" depart="42.00" departLane="L8_0" departPos="5.10" departSpeed="0.00" departDelay="0.00" arrival="136.00" arrivalLane="A1_0" arrivalPos="192.80" arrivalSpeed="13.77" duration="94.00" routeLength="686.33" waitingTime="33.00" waitingCount="2" stopTime="0.00" timeLoss="43.44" rerouteNo="0" devices="tripinfo_veh_14" vType="autonomous" speedFactor="0.99" vaporized=""/>
    <tripinfo id="veh_21" depart="63.00" departLane="A7_0" departPos="5.10" departSpeed="0.00" departDelay="0.00" arrival="136.00" arrivalLane="L7_0" arrivalPos="89.60" arrivalSpeed="14.03" duration="73.00" routeLength="494.15" waitingTime="25.00" waitingCount="2" stopTime="0.00" timeLoss="36.86" rerouteNo="0" devices="tripinfo_veh_21" vType="autonomous" speedFactor="1.01" vaporized=""/>
    <tripinfo id="veh_8" depart="24.00" departLane="L10_0" departPos="5.10" departSpeed="0.00" departDelay="0.00" arrival="140.00" arrivalLane="L1_0" arrivalPos="89.60" arrivalSpeed="13.03" duration="116.00" routeLength="585.58" waitingTime="55.00" waitingCount="3" stopTime="0.00" timeLoss="68.68" rerouteNo="0" devices="tripinfo_veh_8" vType="autonomous" speedFactor="0.94" vaporized=""/>
    <tripinfo id="veh_30" depart="90.00" departLane="L10_0" departPos="5.10" departSpeed="0.00" departDelay="0.00" arrival="141.00" arrivalLane="L1_0" arrivalPos="89.60" arrivalSpeed="15.86" duration="51.00" routeLength="585.58" waitingTime="0.00" waitingCount="0" stopTime="0.00" timeLoss="14.04" rerouteNo="0" devices="tripinfo_veh_30" vType="autonomous" speedFactor="1.18" vaporized=""/>
    <tripinfo id="veh_22" depart="66.00" departLane="A7_0" departPos="5.10" departSpeed="0.00" departDelay="0.00" arrival="151.00" arrivalLane="L3_0" arrivalPos="89.60" arrivalSpeed="13.54" duration="85.00" routeLength="694.15" waitingTime="21.00" waitingCount="3" stopTime="0.00" timeLoss="32.33" rerouteNo="0" devices="tripinfo_veh_22" vType="autonomous" speedFactor="0.97" vaporized=""/>
    <tripinfo id="veh_39" depart="117.00" departLane="L8_0" departPos="5.10" departSpeed="0.00" departDelay="0.00" arrival="153.00" arrivalLane="A6_1" arrivalPos="192.80" arrivalSpeed="12.51" duration="36.00" routeLength="294.15" waitingTime="5.00" waitingCount="1" stopTime="0.00" timeLoss="10.94" rerouteNo="0" devices="tripinfo_veh_39" vType="autonomous" speedFactor="0.90" vaporized=""/>
    <tripinfo id="veh_35" depart="105.00" departLane="L10_0" departPos="5.10" departSpeed="0.00" departDelay="0.00" arrival="156.00" arrivalLane="L7_0" arrivalPos="89.60" arrivalSpeed="14.16" duration="51.00" routeLength="393.40" waitingTime="14.00" waitingCount="1" stopTime="0.00" timeLoss="20.95" rerouteNo="0" devices="tripinfo_veh_35" vType="autonomous" speedFactor="1.02" vaporized=""/>
    <tripinfo id="veh_33" depart="99.00" departLane="L8_0" departPos="5.10" departSpeed="0.00" departDelay="0.00" arrival="157.00" arrivalLane="L7_0" arrivalPos="89.60" arrivalSpeed="16.28" duration="58.00" routeLength="385.58" waitingTime="22.00" waitingCount="1" stopTime="0.00" timeLoss="32.82" rerouteNo="0" devices="tripinfo_veh_33" vType="autonomous" speedFactor="1.17" vaporized=""/>
    <tripinfo id="veh_37" depart="111.00" departLane="L0_0" departPos="5.10" departSpeed="0.00" departDelay="0.00" arrival="164.00" arrivalLane="L3_0" arrivalPos="89.60" arrivalSpeed="16.39" duration="53.00" routeLength="194.90" waitingTime="33.00" waitingCount="1" stopTime="0.00" timeLoss="40.57" rerouteNo="0" devices="tripinfo_veh_37" vType="autonomous" speedFactor="1.18" vaporized=""/>
    <tripinfo id="veh_41" depart="123.00" departLane="A0_0" departPos="5.10" departSpeed="0.00" departDelay="0.00" arrival="164.00" arrivalLane="L7_0" arrivalPos="89.60" arrivalSpeed="13.29" duration="41.00" routeLength="486.33" waitingTime="0.00" waitingCount="0" stopTime="0.00" timeLoss="3.84" rerouteNo="0" devices="tripinfo_veh_41" vType="autonomous" speedFactor="0.96" vaporized=""/>
    <tripinfo id="veh_47" depart="141.00" departLane="L8_0" departPos="5.10" departSpeed="0.00" departDelay="0.00" arrival="174.00" arrivalLane="A6_1" arrivalPos="192.80" arrivalSpeed="12.51" duration="33.00" routeLength="294.15" waitingTime="3.00" waitingCount="1" stopTime="0.00" timeLoss="7.80" rerouteNo="0" devices="tripinfo_veh_47" vType="autonomous" speedFactor="0.90" vaporized=""/>
    <tripinfo id="veh_45" depart="135.00" departLane="L2_0" departPos="5.10" departSpeed="0.00" departDelay="0.00" arrival="181.00" arrivalLane="L5_0" arrivalPos="89.60" arrivalSpeed="15.11" duration="46.00" routeLength="385.58" waitingTime="11.00" waitingCount="1" stopTime="0.00" timeLoss="18.89" rerouteNo="0" devices="tripinfo_veh_45" vType="autonomous" speedFactor="1.09" vaporized=""/>
    <tripinfo id="veh_54" depart="162.00" departLane="L2_0" departPos="5.10" departSpeed="0.00" departDelay="0.00" arrival="188.00" arrivalLane="A1_1" arrivalPos="192.80" arrivalSpeed="13.93" duration="26.00" routeLength="294.15" waitingTime="0.00" waitingCount="0" stopTime="0.00" timeLoss="3.64" rerouteNo="0" devices="tripinfo_veh_54" vType="autonomous" speedFactor="1.00" vaporized=""/>
    <tripinfo id="veh_20" depart="60.00" departLane="A0_0" departPos="5.10" departSpeed="0.00" departDelay="0.00" arrival="189.00" arrivalLane="L11_0" arrivalPos="89.60" arrivalSpeed="14.14" duration="129.00" routeLength="686.33" waitingTime="70.00" waitingCount="2" stopTime="0.00" timeLoss="79.38" rerouteNo="0" devices="tripinfo_veh_20" vType="autonomous" speedFactor="1.02" vaporized=""/>
    <tripinfo id="veh_36" depart="108.00" departLane="A0_0" departPos="5.10" departSpeed="0.00" departDelay="0.00" arrival="191.00" arrivalLane="L11_0" arrivalPos="89.60" arrivalSpeed="13.52" duration="83.00" routeLength="686.33" waitingTime="26.00" waitingCount="1" stopTime="0.00" timeLoss="31.59" rerouteNo="0" devices="tripinfo_veh_36" vType="autonomous" speedFactor="0.97" vaporized=""/>
    <tripinfo id="veh_27" depart="81.00" departLane="L0_0" departPos="5.10" departSpeed="0.00" departDelay="0.00" arrival="192.00" arrivalLane="L9_0" arrivalPos="89.60" arrivalSpeed="13.18" duration="111.00" routeLength="593.40" waitingTime="53.00" waitingCount="3" stopTime="0.00" timeLoss="63.97" rerouteNo="0" devices="tripinfo_veh_27" vType="autonomous" speedFactor="0.95" vaporized=""/>
    <tripinfo id="veh_38" depart="114.00" departLane="A0_0" departPos="5.10" departSpeed="0.00" departDelay="0.00" arrival="193.00" arrivalLane="L9_0" arrivalPos="89.60" arrivalSpeed="15.31" duration="79.00" routeLength="694.15" waitingTime="24.00" waitingCount="2" stopTime="0.00" timeLoss="32.96" rerouteNo="0" devices="tripinfo_veh_38" vType="autonomous" speedFactor="1.10" vaporized=""/>
    <tripinfo id="veh_49" depart="147.00" departLane="L4_0" departPos="5.10" departSpeed="0.00" departDelay="0.00" arrival="194.00" arrivalLane="L7_0" arrivalPos="89.60" arrivalSpeed="11.81" duration="47.00" routeLength="194.90" waitingTime="25.00" waitingCount="1" stopTime="0.00" timeLoss="30.01" rerouteNo="0" devices="tripinfo_veh_49" vType="autonomous" speedFactor="0.85" vaporized=""/>
    <tripinfo id="veh_34" depart="102.00" departLane="L2_0" departPos="5.10" departSpeed="0.00" departDelay="0.00" arrival="195.00" arrivalLane="L11_0" arrivalPos="89.60" arrivalSpeed="13.82" duration="93.00" routeLength="577.76" waitingTime="42.00" waitingCount="1" stopTime="0.00" timeLoss="49.02" rerouteNo="0" devices="tripinfo_veh_34" vType="autonomous" speedFactor="0.99" vaporized=""/>
    <tripinfo id="veh_40" depart="120.00" departLane="A7_0" departPos="5.10" departSpeed="0.00" departDelay="0.00" arrival="198.00" arrivalLane="L11_0" arrivalPos="89.60" arrivalSpeed="14.31" duration="78.00" routeLength="294.15" waitingTime="50.00" waitingCount="2" stopTime="0.00" timeLoss="56.73" rerouteNo="0" devices="tripinfo_veh_40" vType="autonomous" speedFactor="1.03" vaporized=""/>
    <tripinfo id="veh_43" depart="129.00" departLane="L4_0" departPos="5.10" departSpeed="0.00" departDelay="0.00" arrival="212.00" arrivalLane="A6_1" arrivalPos="192.80" arrivalSpeed="14.42" duration="83.00" routeLength="494.15" waitingTime="42.00" waitingCount="1" stopTime="0.00" timeLoss="47.92" rerouteNo="0" devices="tripinfo_veh_43" vType="autonomous" speedFactor="1.04" vaporized=""/>
    <tripinfo id="veh_51" depart="153.00" departLane="L4_0" departPos="5.10" departSpeed="0.00" departDelay="0.00" arrival="215.00" arrivalLane="L1_0" arrivalPos="89.60" arrivalSpeed="16.24" duration="62.00" routeLength="377.76" waitingTime="25.00" waitingCount="2" stopTime="0.00" timeLoss="37.48" rerouteNo="0" devices="tripinfo_veh_51" vType="autonomous" speedFactor="1.17" vaporized=""/>
    <tripinfo id="veh_60" depart="180.00" departLane="L6_0" departPos="5.10" departSpeed="0.00" departDelay="0.00" arrival="216.00" arrivalLane="L11_0" arrivalPos="89.60" arrivalSpeed="15.04" duration="36.00" routeLength="377.76" waitingTime="0.00" waitingCount="0" stopTime="0.00" timeLoss="8.51" rerouteNo="0" devices="tripinfo_veh_60" vType="autonomous" speedFactor="1.08" vaporized=""/>
    <tripinfo id="veh_56" depart="168.00" departLane="L4_0" departPos="5.10" departSpeed="0.00" departDelay="0.00" arrival="217.00" arrivalLane="L9_0" arrivalPos="89.60" arrivalSpeed="12.49" duration="49.00" routeLength="393.40" waitingTime="7.00" waitingCount="1" stopTime="0.00" timeLoss="15.00" rerouteNo="0" devices="tripinfo_veh_56" vType="autonomous" speedFactor="0.90" vaporized=""/>
    <tripinfo id="veh_42" depart="126.00" departLane="L4_0" departPos="5.10" departSpeed="0.00" departDelay="0.00" arrival="221.00" arrivalLane="A1_1" arrivalPos="192.80" arrivalSpeed="15.17" duration="95.00" routeLength="486.33" waitingTime="51.00" waitingCount="2" stopTime="0.00" timeLoss="61.51" rerouteNo="0" devices="tripinfo_veh_42" vType="autonomous" speedFactor="1.09" vaporized=""/>
    <tripinfo id="veh_32" depart="96.00" departLane="L8_0" departPos="5.10" departSpeed="0.00" departDelay="0.00" arrival="222.00" arrivalLane="A1_0" arrivalPos="192.80" arrivalSpeed="13.96" duration="126.00" routeLength="686.33" waitingTime="66.00" waitingCount="2" stopTime="0.00" timeLoss="75.33" rerouteNo="0" devices="tripinfo_veh_32" vType="autonomous" speedFactor="1.01" vaporized=""/>
    <tripinfo id="veh_59" depart="177.00" departLane="L6_0" departPos="5.10" departSpeed="0.00" departDelay="0.00" arrival="222.00" arrivalLane="A6_0" arrivalPos="192.80" arrivalSpeed="13.47" duration="45.00" routeLength="486.33" waitingTime="1.00" waitingCount="1" stopTime="0.00" timeLoss="7.92" rerouteNo="0" devices="tripinfo_veh_59" vType="autonomous" speedFactor="0.97" vaporized=""/>
    <tripinfo id="veh_50" depart="150.00" departLane="L6_0" departPos="5.10" departSpeed="0.00" departDelay="0.00" arrival="225.00" arrivalLane="A1_0" arrivalPos="192.80" arrivalSpeed="11.87" duration="75.00" routeLength="494.15" waitingTime="25.00" waitingCount="2" stopTime="0.00" timeLoss="32.59" rerouteNo="0" devices="tripinfo_veh_50" vType="autonomous" speedFactor="0.85" vaporized=""/>
    <tripinfo id="veh_68" depart="204.00" departLane="A7_0" departPos="5.10" departSpeed="0.00" departDelay="0.00" arrival="229.00" arrivalLane="L9_0" arrivalPos="89.60" arrivalSpeed="14.45" duration="25.00" routeLength="286.33" waitingTime="0.00" waitingCount="0" stopTime="0.00" timeLoss="4.06" rerouteNo="0" devices="tripinfo_veh_68" vType="autonomous" speedFactor="1.04" vaporized=""/>
    <tripinfo id="veh_44" depart="132.00" departLane="A7_0" departPos="5.10" departSpeed="0.00" departDelay="0.00" arrival="239.00" arrivalLane="L5_0" arrivalPos="89.60" arrivalSpeed="14.49" duration="107.00" routeLength="486.33" waitingTime="62.00" waitingCount="2" stopTime="0.00" timeLoss="72.23" rerouteNo="0" devices="tripinfo_veh_44" vType="autonomous" speedFactor="1.04" vaporized=""/>
    <tripinfo id="veh_48" depart="144.00" departLane="L2_0" departPos="5.10" departSpeed="0.00" departDelay="0.00" arrival="240.00" arrivalLane="L7_0" arrivalPos="89.60" arrivalSpeed="12.18" duration="96.00" routeLength="377.76" waitingTime="54.00" waitingCount="2" stopTime="0.00" timeLoss="63.22" rerouteNo="0" devices="tripinfo_veh_48" vType="autonomous" speedFactor="0.88" vaporized=""/>
    <tripinfo id="veh_63" depart="189.00" departLane="A7_0" departPos="5.10" departSpeed="0.00" departDelay="0.00" arrival="241.00" arrivalLane="L5_0" arrivalPos="89.60" arrivalSpeed="13.71" duration="52.00" routeLength="486.33" waitingTime="10.00" waitingCount="1" stopTime="0.00" timeLoss="15.80" rerouteNo="0" devices="tripinfo_veh_63" vType="autonomous" speedFactor="0.99" vaporized=""/>
    <tripinfo id="veh_62" depart="186.00" departLane="L0_0" departPos="5.10" departSpeed="0.00" departDelay="0.00" arrival="243.00" arrivalLane="L7_0" arrivalPos="89.60" arrivalSpeed="14.11" duration="57.00" routeLength="385.58" waitingTime="20.00" waitingCount="1" stopTime="0.00" timeLoss="28.00" rerouteNo="0" devices="tripinfo_veh_62" vType="autonomous" speedFactor="1.02" vaporized=""/>
    <tripinfo id="veh_75" depart="225.00" departLane="L10_0" departPos="5.10" departSpeed="0.00" departDelay="0.00" arrival="251.00" arrivalLane="A6_0" arrivalPos="192.80" arrivalSpeed="13.68" duration="26.00" routeLength="286.33" waitingTime="0.00" waitingCount="0" stopTime="0.00" timeLoss="3.85" rerouteNo="0" devices="tripinfo_veh_75" vType="autonomous" speedFactor="0.98" vaporized=""/>
    <tripinfo id="veh_57" depart="171.00" departLane="L8_0" departPos="5.10" departSpeed="0.00" departDelay="0.00" arrival="253.00" arrivalLane="L5_0" arrivalPos="89.60" arrivalSpeed="15.87" duration="82.00" routeLength="377.76" waitingTime="48.00" waitingCount="1" stopTime="0.00" timeLoss="56.22" rerouteNo="0" devices="tripinfo_veh_57" vType="autonomous" speedFactor="1.14" vaporized=""/>
    <tripinfo id="veh_53" depart="159.00" departLane="A7_0" departPos="5.10" departSpeed="0.00" departDelay="0.00" arrival="254.00" arrivalLane="L3_0" arrivalPos="89.60" arrivalSpeed="15.22" duration="95.00" routeLength="694.15" waitingTime="35.00" waitingCount="3" stopTime="0.00" timeLoss="48.26" rerouteNo="0" devices="tripinfo_veh_53" vType="autonomous" speedFactor="1.10" vaporized=""/>
    <tripinfo id="veh_66" depart="198.00" departLane="A7_0" departPos="5.10" departSpeed="0.00" departDelay="0.00" arrival="265.00" arrivalLane="A1_0" arrivalPos="192.80" arrivalSpeed="12.60" duration="67.00" routeLength="794.90" waitingTime="0.00" waitingCount="0" stopTime="0.00" timeLoss="3.85" rerouteNo="0" devices="tripinfo_veh_66" vType="autonomous" speedFactor="0.91" vaporized=""/>
    <tripinfo id="veh_85" depart="255.00" departLane="L8_0" departPos="5.10" departSpeed="0.00" departDelay="0.00" arrival="272.00" arrivalLane="L11_0" arrivalPos="89.60" arrivalSpeed="13.56" duration="17.00" routeLength="194.90" waitingTime="0.00" waitingCount="0" stopTime="0.00" timeLoss="2.12" rerouteNo="0" devices="tripinfo_veh_85" vType="autonomous" speedFactor="0.98" vaporized=""/>
    <tripinfo id="veh_69" depart="207.00" departLane="L0_0" departPos="5.10" departSpeed="0.00" departDelay="0.00" arrival="273.00" arrivalLane="A1_0" arrivalPos="192.80" arrivalSpeed="14.20" duration="66.00" routeLength="286.33" waitingTime="39.00" waitingCount="1" stopTime="0.00" timeLoss="44.66" rerouteNo="0" devices="tripinfo_veh_69" vType="autonomous" speedFactor="1.02" vaporized=""/>
    <tripinfo id="veh_83" depart="249.00" departLane="L2_0" departPos="5.10" departSpeed="0.00" departDelay="0.00" arrival="273.00" arrivalLane="L1_0" arrivalPos="89.60" arrivalSpeed="13.43" duration="24.00" routeLength="194.90" waitingTime="1.00" waitingCount="1" stopTime="0.00" timeLoss="8.98" rerouteNo="0" devices="tripinfo_veh_83" vType="autonomous" speedFactor="0.97" vaporized=""/>
    <tripinfo id="veh_84" depart="252.00" departLane="L10_0" departPos="5.10" departSpeed="0.00" departDelay="0.00" arrival="275.00" arrivalLane="A6_0" arrivalPos="192.80" arrivalSpeed="15.94" duration="23.00" routeLength="286.33" waitingTime="0.00" waitingCount="0" stopTime="0.00" timeLoss="3.97" rerouteNo="0" devices="tripinfo_veh_84" vType="autonomous" speedFactor="1.15" vaporized=""/>
    <tripinfo id="veh_74" depart="222.00" departLane="L0_0" departPos="5.10" departSpeed="0.00" departDelay="0.00" arrival="276.00" arrivalLane="A1_0" arrivalPos="192.80" arrivalSpeed="13.27" duration="54.00" routeLength="286.33" waitingTime="25.00" waitingCount="1" stopTime="0.00" timeLoss="31.69" rerouteNo="0" devices="tripinfo_veh_74" vType="autonomous" speedFactor="0.96" vaporized=""/>
    <tripinfo id="veh_87" depart="261.00" departLane="L10_0" departPos="5.10" departSpeed="0.00" departDelay="0.00" arrival="278.00" arrivalLane="L9_0" arrivalPos="89.60" arrivalSpeed="14.48" duration="17.00" routeLength="194.90" waitingTime="0.00" waitingCount="0" stopTime="0.00" timeLoss="2.64" rerouteNo="0" devices="tripinfo_veh_87" vType="autonomous" speedFactor="1.04" vaporized=""/>
    <tripinfo id="veh_64" depart="192.00" departLane="L0_0" departPos="5.10" departSpeed="0.00" departDelay="0.00" arrival="284.00" arrivalLane="L7_0" arrivalPos="89.60" arrivalSpeed="13.02" duration="92.00" routeLength="385.58" waitingTime="52.00" waitingCount="1" stopTime="0.00" timeLoss="59.62" rerouteNo="0" devices="tripinfo_veh_64" vType="autonomous" speedFactor="0.94" vaporized=""/>
    <tripinfo id="veh_80" depart="240.00" departLane="L6_0" departPos="5.10" departSpeed="0.00" departDelay="0.00" arrival="290.00" arrivalLane="L5_0" arrivalPos="89.60" arrivalSpeed="14.37" duration="50.00" routeLength="194.90" waitingTime="29.00" waitingCount="1" stopTime="0.00" timeLoss="35.48" rerouteNo="0" devices="tripinfo_veh_80" vType="autonomous" speedFactor="1.03" vaporized=""/>
    <tripinfo id="veh_61" depart="183.00" departLane="L2_0" departPos="5.10" departSpeed="0.00" departDelay="0.00" arrival="291.00" arrivalLane="L11_0" arrivalPos="89.60" arrivalSpeed="15.55" duration="108.00" routeLength="577.76" waitingTime="56.00" waitingCount="2" stopTime="0.00" timeLoss="68.82" rerouteNo="0" devices="tripinfo_veh_61" vType="autonomous" speedFactor="1.12" vaporized=""/>
    <tripinfo id="veh_55" depart="165.00" departLane="A0_0" departPos="5.10" departSpeed="0.00" departDelay="0.00" arrival="292.00" arrivalLane="L9_0" arrivalPos="89.60" arrivalSpeed="13.83" duration="127.00" routeLength="694.15" waitingTime="62.00" waitingCount="3" stopTime="0.00" timeLoss="75.47" rerouteNo="0" devices="tripinfo_veh_55" vType="autonomous" speedFactor="1.00" vaporized=""/>
    <tripinfo id="veh_58" depart="174.00" departLane="A0_0" departPos="5.10" departSpeed="0.00" departDelay="0.00" arrival="293.00" arrivalLane="L11_0" arrivalPos="89.60" arrivalSpeed="14.22" duration="119.00" routeLength="686.33" waitingTime="52.00" waitingCount="3" stopTime="0.00" timeLoss="69.77" rerouteNo="0" devices="tripinfo_veh_58" vType="autonomous" speedFactor="1.02" vaporized=""/>
    <tripinfo id="veh_79" depart="237.00" departLane="A7_0" departPos="5.10" departSpeed="0.00" departDelay="0.00" arrival="295.00" arrivalLane="L11_0" arrivalPos="89.60" arrivalSpeed="15.10" duration="58.00" routeLength="294.15" waitingTime="31.00" waitingCount="2" stopTime="0.00" timeLoss="37.53" rerouteNo="0" devices="tripinfo_veh_79" vType="autonomous" speedFactor="1.09" vaporized=""/>